
Running Job 1 of 1 si29h36.in
qchem si29h36.in_310526.0 /local/2448360.master01.hydra.brussel.vsc/qchem310526/ 0
/apps/brussel/CO7/skylake/software/Q-Chem/5.2.1-intel-2019a-mpich3/exe/qcprog.exe_s si29h36.in_310526.0 /local/2448360.master01.hydra.brussel.vsc/qchem310526/
                  Welcome to Q-Chem
     A Quantum Leap Into The Future Of Chemistry


 Q-Chem 5.2, Q-Chem, Inc., Pleasanton, CA (2019)

 License issued to: SRG Nathalie Vaeck, Universite Libre de Bruxelles

 Yihan Shao,  Zhengting Gan,  E. Epifanovsky,  A. T. B. Gilbert,  M. Wormit,  
 J. Kussmann,  A. W. Lange,  A. Behn,  Jia Deng,  Xintian Feng,  D. Ghosh,  
 M. Goldey,  P. R. Horn,  L. D. Jacobson,  I. Kaliman,  T. Kus,  A. Landau,  
 Jie Liu,  E. I. Proynov,  R. M. Richard,  R. P. Steele,  E. J. Sundstrom,  
 H. L. Woodcock III,  P. M. Zimmerman,  D. Zuev,  B. Albrecht,  E. Alguire,  
 S. A. Baeppler,  D. Barton,  Z. Benda,  Y. A. Bernard,  E. J. Berquist,  
 K. B. Bravaya,  H. Burton,  D. Casanova,  Chun-Min Chang,  Yunqing Chen,  
 A. Chien,  K. D. Closser,  M. P. Coons,  S. Coriani,  S. Dasgupta,  
 A. L. Dempwolff,  M. Diedenhofen,  Hainam Do,  R. G. Edgar,  Po-Tung Fang,  
 S. Faraji,  S. Fatehi,  Qingguo Feng,  K. D. Fenk,  J. Fosso-Tande,  
 J. Gayvert,  Qinghui Ge,  A. Ghysels,  G. Gidofalvi,  J. Gomes,  
 J. Gonthier,  A. Gunina,  D. Hait,  M. W. D. Hanson-Heine,  
 P. H. P. Harbach,  A. W. Hauser,  M. F. Herbst,  J. E. Herr,  
 E. G. Hohenstein,  Z. C. Holden,  Kerwin Hui,  B. C. Huynh,  T.-C. Jagau,  
 Hyunjun Ji,  B. Kaduk,  K. Khistyaev,  Jaehoon Kim,  P. Klunzinger,  K. Koh,  
 D. Kosenkov,  L. Koulias,  T. Kowalczyk,  C. M. Krauter,  A. Kunitsa,  
 Ka Un Lao,  A. Laurent,  K. V. Lawler,  Joonho Lee,  D. Lefrancois,  
 S. Lehtola,  D. S. Levine,  Yi-Pei Li,  You-Sheng Lin,  Fenglai Liu,  
 E. Livshits,  A. Luenser,  P. Manohar,  E. Mansoor,  S. F. Manzer,  
 Shan-Ping Mao,  Yuezhi Mao,  N. Mardirossian,  A. V. Marenich,  
 T. Markovich,  L. A. Martinez-Martinez,  S. A. Maurer,  N. J. Mayhall,  
 S. C. McKenzie,  J.-M. Mewes,  P. Morgante,  A. F. Morrison,  
 J. W. Mullinax,  K. Nanda,  T. S. Nguyen-Beck,  R. Olivares-Amaya,  
 J. A. Parkhill,  Zheng Pei,  T. M. Perrine,  F. Plasser,  P. Pokhilko,  
 S. Prager,  A. Prociuk,  E. Ramos,  D. R. Rehn,  F. Rob,  M. Scheurer,  
 M. Schneider,  N. Sergueev,  S. M. Sharada,  S. Sharma,  D. W. Small,  
 T. Stauch,  T. Stein,  Yu-Chuan Su,  A. J. W. Thom,  A. Tkatchenko,  
 T. Tsuchimochi,  N. M. Tubman,  L. Vogt,  M. L. Vidal,  O. Vydrov,  
 M. A. Watson,  J. Wenzel,  M. de Wergifosse,  T. A. Wesolowski,  A. White,  
 J. Witte,  A. Yamada,  Jun Yang,  K. Yao,  S. Yeganeh,  S. R. Yost,  
 Zhi-Qiang You,  A. Zech,  Igor Ying Zhang,  Xing Zhang,  Yan Zhao,  
 Ying Zhu,  B. R. Brooks,  G. K. L. Chan,  C. J. Cramer,  M. S. Gordon,  
 W. J. Hehre,  A. Klamt,  M. W. Schmidt,  C. D. Sherrill,  D. G. Truhlar,  
 A. Aspuru-Guzik,  R. Baer,  A. T. Bell,  N. A. Besley,  Jeng-Da Chai,  
 A. E. DePrince, III,  R. A. DiStasio Jr.,  A. Dreuw,  B. D. Dunietz,  
 T. R. Furlani,  Chao-Ping Hsu,  Yousung Jung,  Jing Kong,  D. S. Lambrecht,  
 WanZhen Liang,  C. Ochsenfeld,  V. A. Rassolov,  L. V. Slipchenko,  
 J. E. Subotnik,  T. Van Voorhis,  J. M. Herbert,  A. I. Krylov,  
 P. M. W. Gill,  M. Head-Gordon

 Contributors to earlier versions of Q-Chem not listed above: 
 R. D. Adamson,  B. Austin,  J. Baker,  G. J. O. Beran,  K. Brandhorst,  
 S. T. Brown,  E. F. C. Byrd,  A. K. Chakraborty,  C.-L. Cheng,  
 Siu Hung Chien,  D. M. Chipman,  D. L. Crittenden,  H. Dachsel,  
 R. J. Doerksen,  A. D. Dutoi,  L. Fusti-Molnar,  W. A. Goddard III,  
 A. Golubeva-Zadorozhnaya,  S. R. Gwaltney,  G. Hawkins,  A. Heyden,  
 S. Hirata,  G. Kedziora,  F. J. Keil,  C. Kelley,  Jihan Kim,  R. A. King,  
 R. Z. Khaliullin,  P. P. Korambath,  W. Kurlancheek,  A. M. Lee,  M. S. Lee,  
 S. V. Levchenko,  Ching Yeh Lin,  D. Liotard,  R. C. Lochan,  I. Lotan,  
 P. E. Maslen,  N. Nair,  D. P. O'Neill,  D. Neuhauser,  E. Neuscamman,  
 C. M. Oana,  R. Olson,  B. Peters,  R. Peverati,  P. A. Pieniazek,  
 Y. M. Rhee,  J. Ritchie,  M. A. Rohrdanz,  E. Rosta,  N. J. Russ,  
 H. F. Schaefer III,  N. E. Schultz,  N. Shenvi,  A. C. Simmonett,  A. Sodt,  
 D. Stuck,  K. S. Thanthiriwatte,  V. Vanovschi,  Tao Wang,  A. Warshel,  
 C. F. Williams,  Q. Wu,  X. Xu,  W. Zhang

 Please cite Q-Chem as follows:
 Y. Shao et al., Mol. Phys. 113, 184-215 (2015)
 DOI: 10.1080/00268976.2014.952696

 Q-Chem 5.2.1 for Intel X86 EM64T Linux

 Parts of Q-Chem use Armadillo 8.300.2 (Tropical Shenanigans).
 http://arma.sourceforge.net/

 Q-Chem begins on Tue Oct  1 11:30:32 2019  

Host: 
0

     Scratch files written to /local/2448360.master01.hydra.brussel.vsc/qchem310525//
 Jul1719 |scratch|qcdevops|jenkins|workspace|build_RNUM -1
Processing $rem in /apps/brussel/CO7/skylake/software/Q-Chem/5.2.1-intel-2019a-mpich3/config/preferences:
	 MEM_TOTAL  8000 
NAlpha2: 442
NElect   442
Mult     1

Checking the input file for inconsistencies... 	...done.

--------------------------------------------------------------
User input:
--------------------------------------------------------------
$molecule
0 1
Si  -4.10590460651919     -1.48794161059892     -1.48768103765448
Si  -1.48748338422495     -4.10590053118169     -1.48814107887288
Si  -1.48780107439226     -1.48759558415852     -4.10614882948262
Si  -2.74295417317770     -2.74341557206170     -0.01830468637718
Si  -1.37633633632854     -1.37645048044529      1.37636321514838
Si  -2.74331656351603     -0.01824788719474     -2.74321003712404
Si  -1.37649741255324      1.37631213786770     -1.37631750405768
Si  -2.74349246182651      2.74321212356192      0.01817739224240
Si  -2.74327519725261      0.01802907482936      2.74333923264805
Si  -4.10605764270309      1.48765880196221      1.48792590013647
Si  -1.48751240642538      1.48772998700214      4.10579230352736
Si  -1.48770491694623      4.10597596037500      1.48750975235361
Si  -0.01802576342013     -2.74300337680089     -2.74353172980606
Si  1.37643024858199     -1.37631361601022     -1.37643087415900
Si  2.74316486801738     -2.74342792001410      0.01812252833418
Si  0.01809619920597     -2.74325080908000      2.74346575222715
Si  1.48755487611877     -4.10599488205805      1.48778528680472
Si  1.48754184103303     -1.48744409562884      4.10612946360857
Si  4.10579936795207     -1.48794953953605      1.48788807049434
Si  0.01800201269446      2.74333169634419     -2.74318185977972
Si  2.74343318331191      0.01824548073327     -2.74324999622699
Si  1.48759753468058      1.48773088794446     -4.10581257550261
Si  1.48777727836077      4.10596962075369     -1.48773532102841
Si  4.10620895156916      1.48772505538743     -1.48764921478160
Si  0.00000891115290     -0.00002185102284     -0.00001338178563
Si  2.74338406763354      2.74323521537523     -0.01820054068609
Si  -0.01803701981113      2.74331924499178      2.74298917195234
Si  2.74319850987980     -0.01810373218631      2.74324979861113
Si  1.37642155892202      1.37635804465882      1.37623227173773
H   -5.20616749875121     -0.78684787735134     -0.78641238490114
H   -4.72972544096818     -2.44380348547491     -2.44353549612187
H   -2.44350421145284     -4.72948825789835     -2.44399278607931
H   -0.78630523981433     -5.20632298828113     -0.78721563985069
H   -0.78689148937192     -0.78638005871666     -5.20655020465735
H   -2.44368268984984     -2.44358364843784     -4.72973815612924
H   -3.59968212087905     -3.60039428740089      0.85060571920235
H   -3.60027726651832      0.85074620713911     -3.59987438527244
H   -3.60038994675059      3.59999641298265     -0.85074322138786
H   -3.59998447151459     -0.85088464401261      3.60032170474714
H   -5.20656504538422      0.78662145728658      0.78699093289286
H   -4.72955068810586      2.44360228083953      2.44392522677343
H   -0.78632166209981      0.78674708821414      5.20616601522236
H   -2.44335088044330      2.44368290929665      4.72951849304057
H   -2.44343501228272      4.72976153535177      2.44352995327942
H   -0.78663695282855      5.20627404763012      0.78628182974225
H   0.85097388881206     -3.59974939924351     -3.60040246037358
H   3.59999979232927     -3.60031407154219     -0.85076077299947
H   -0.85087573520540     -3.60002050538168      3.60032772240437
H   2.44348009614370     -4.72976385097409      2.44361995496116
H   0.78626931011956     -5.20629771329086      0.78677707421036
H   2.44339128287705     -2.44323111852177      4.73008647226132
H   0.78636615362138     -0.78614127143181      5.20631037244355
H   5.20637539871771     -0.78703338637336      0.78694912350864
H   4.72921402575256     -2.44388717902981      2.44394521375621
H   -0.85092904509051      3.60016700249006     -3.60002112650884
H   3.60015154757007     -0.85070950440066     -3.60017949803435
H   2.44335212081545      2.44366568436786     -4.72968865527743
H   0.78643878640668      0.78647869991704     -5.20603930455668
H   0.78682649011408      5.20635365228389     -0.78652210158944
H   2.44361367248739      4.72963911373130     -2.44372268515114
H   4.72998548740793      2.44361688340618     -2.44350649523084
H   5.20648376383930      0.78660009819514     -0.78644513661045
H   3.60013275837918      3.60008401064600      0.85081940256177
H   0.85089989443202      3.60018793806786      3.59980798407646
H   3.60010047746854      0.85085638210852      3.60000584314645
$end

$rem
JOBTYPE              sp
EXCHANGE             b3lyp
BASIS                def2-tzvp
CIS_N_ROOTS          4
CIS_CONVERGENCE      8
CORRELATION          none
MAX_SCF_CYCLES       600
MAX_CIS_CYCLES       50
SCF_ALGORITHM        diis
MEM_STATIC           1200
MEM_TOTAL            8000
SYMMETRY             false
SYM_IGNORE           true
UNRESTRICTED         false
CIS_SINGLETS         true
CIS_TRIPLETS         true
CALC_SOC             true
SET_ITER             300
STS_MOM              true
--------------------------------------------------------------
 ----------------------------------------------------------------
             Standard Nuclear Orientation (Angstroms)
    I     Atom           X                Y                Z
 ----------------------------------------------------------------
    1      Si     -4.1059046065    -1.4879416106    -1.4876810377
    2      Si     -1.4874833842    -4.1059005312    -1.4881410789
    3      Si     -1.4878010744    -1.4875955842    -4.1061488295
    4      Si     -2.7429541732    -2.7434155721    -0.0183046864
    5      Si     -1.3763363363    -1.3764504804     1.3763632151
    6      Si     -2.7433165635    -0.0182478872    -2.7432100371
    7      Si     -1.3764974126     1.3763121379    -1.3763175041
    8      Si     -2.7434924618     2.7432121236     0.0181773922
    9      Si     -2.7432751973     0.0180290748     2.7433392326
   10      Si     -4.1060576427     1.4876588020     1.4879259001
   11      Si     -1.4875124064     1.4877299870     4.1057923035
   12      Si     -1.4877049169     4.1059759604     1.4875097524
   13      Si     -0.0180257634    -2.7430033768    -2.7435317298
   14      Si      1.3764302486    -1.3763136160    -1.3764308742
   15      Si      2.7431648680    -2.7434279200     0.0181225283
   16      Si      0.0180961992    -2.7432508091     2.7434657522
   17      Si      1.4875548761    -4.1059948821     1.4877852868
   18      Si      1.4875418410    -1.4874440956     4.1061294636
   19      Si      4.1057993680    -1.4879495395     1.4878880705
   20      Si      0.0180020127     2.7433316963    -2.7431818598
   21      Si      2.7434331833     0.0182454807    -2.7432499962
   22      Si      1.4875975347     1.4877308879    -4.1058125755
   23      Si      1.4877772784     4.1059696208    -1.4877353210
   24      Si      4.1062089516     1.4877250554    -1.4876492148
   25      Si      0.0000089112    -0.0000218510    -0.0000133818
   26      Si      2.7433840676     2.7432352154    -0.0182005407
   27      Si     -0.0180370198     2.7433192450     2.7429891720
   28      Si      2.7431985099    -0.0181037322     2.7432497986
   29      Si      1.3764215589     1.3763580447     1.3762322717
   30      H      -5.2061674988    -0.7868478774    -0.7864123849
   31      H      -4.7297254410    -2.4438034855    -2.4435354961
   32      H      -2.4435042115    -4.7294882579    -2.4439927861
   33      H      -0.7863052398    -5.2063229883    -0.7872156399
   34      H      -0.7868914894    -0.7863800587    -5.2065502047
   35      H      -2.4436826898    -2.4435836484    -4.7297381561
   36      H      -3.5996821209    -3.6003942874     0.8506057192
   37      H      -3.6002772665     0.8507462071    -3.5998743853
   38      H      -3.6003899468     3.5999964130    -0.8507432214
   39      H      -3.5999844715    -0.8508846440     3.6003217047
   40      H      -5.2065650454     0.7866214573     0.7869909329
   41      H      -4.7295506881     2.4436022808     2.4439252268
   42      H      -0.7863216621     0.7867470882     5.2061660152
   43      H      -2.4433508804     2.4436829093     4.7295184930
   44      H      -2.4434350123     4.7297615354     2.4435299533
   45      H      -0.7866369528     5.2062740476     0.7862818297
   46      H       0.8509738888    -3.5997493992    -3.6004024604
   47      H       3.5999997923    -3.6003140715    -0.8507607730
   48      H      -0.8508757352    -3.6000205054     3.6003277224
   49      H       2.4434800961    -4.7297638510     2.4436199550
   50      H       0.7862693101    -5.2062977133     0.7867770742
   51      H       2.4433912829    -2.4432311185     4.7300864723
   52      H       0.7863661536    -0.7861412714     5.2063103724
   53      H       5.2063753987    -0.7870333864     0.7869491235
   54      H       4.7292140258    -2.4438871790     2.4439452138
   55      H      -0.8509290451     3.6001670025    -3.6000211265
   56      H       3.6001515476    -0.8507095044    -3.6001794980
   57      H       2.4433521208     2.4436656844    -4.7296886553
   58      H       0.7864387864     0.7864786999    -5.2060393046
   59      H       0.7868264901     5.2063536523    -0.7865221016
   60      H       2.4436136725     4.7296391137    -2.4437226852
   61      H       4.7299854874     2.4436168834    -2.4435064952
   62      H       5.2064837638     0.7866000982    -0.7864451366
   63      H       3.6001327584     3.6000840106     0.8508194026
   64      H       0.8508998944     3.6001879381     3.5998079841
   65      H       3.6001004775     0.8508563821     3.6000058431
 ----------------------------------------------------------------
 Nuclear Repulsion Energy =       10296.94863166 hartrees
 There are      221 alpha and      221 beta electrons
 Requested basis set is def2-TZVP
 There are 521 shells and 1289 basis functions

 Total QAlloc Memory Limit   8000 MB
 Mega-Array Size      1174 MB
 MEM_STATIC part      1200 MB
 A cutoff of  1.0D-11 yielded  75385 shell pairs
 There are    495093 function pairs (    622217 Cartesian)
 Smallest overlap matrix eigenvalue = 2.35E-04

 Scale SEOQF with 1.000000e-01/1.000000e-01/1.000000e-01

 Standard Electronic Orientation quadrupole field applied
 Guess from superposition of atomic densities
 Warning:  Energy on first SCF cycle will be non-variational
 SAD guess density has 441.999998 electrons

 -----------------------------------------------------------------------
  General SCF calculation program by
  Eric Jon Sundstrom, Paul Horn, Yuezhi Mao, Dmitri Zuev, Alec White,
  David Stuck, Shaama M.S., Shane Yost, Joonho Lee, David Small,
  Daniel Levine, Susi Lehtola, Hugh Burton, Evgeny Epifanovsky,
  Bang C. Huynh
 -----------------------------------------------------------------------
 Exchange:     0.2000 Hartree-Fock + 0.0800 Slater + 0.7200 B88
 Correlation:  0.1900 VWN1RPA + 0.8100 LYP
 Using SG-1 standard quadrature grid
 A restricted SCF calculation will be
 performed using DIIS
 SCF converges when DIIS error is below 1.0e-08
 ---------------------------------------
  Cycle       Energy         DIIS error
 ---------------------------------------
    1   -8421.8831043064      1.19e-02  
    2   -8417.9752027622      4.46e-04  
    3   -8418.0089225559      3.31e-04  
    4   -8418.0065858041      3.36e-04  
    5   -8418.0403668588      4.13e-05  
    6   -8418.0406912879      2.18e-05  
    7   -8418.0408261454      4.22e-06  
    8   -8418.0408303864      4.60e-07  
    9   -8418.0408304262      1.56e-07  
   10   -8418.0408304325      4.12e-08  
   11   -8418.0408304330      8.41e-09  Convergence criterion met
 ---------------------------------------
 SCF time:   CPU 58840.35s  wall 67689.00s 
 SCF   energy in the final basis set =    -8418.0408304330
 Total energy in the final basis set =    -8418.0408304330
 
 Direct TDDFT/TDA calculation will be performed
 Exchange:     0.2000 Hartree-Fock + 0.0800 Slater + 0.7200 B88
 Correlation:  0.1900 VWN1RPA + 0.8100 LYP
 Using SG-1 standard quadrature grid
 Triplet excitation energies requested
 Singlet excitation energies requested
 CIS energy converged when residual is below 10e- 8
 NRoots was altered as:  4 -->  9
 ---------------------------------------------------
 Iter    Rts Conv    Rts Left    Ttl Dev     Max Dev
 ---------------------------------------------------
   1         0           9      0.000243    0.000028
   2         0           9      0.000071    0.000009
   3         0           9      0.000055    0.000009
   4         0           9      0.000026    0.000004
   5         0           9      0.000014    0.000002
   6         0           9      0.000007    0.000001
   7         0           9      0.000004    0.000001
   8         0           9      0.000002    0.000001
   9         3           6      0.000001    0.000000
  10         3           6      0.000001    0.000000
  11         6           3      0.000000    0.000000
  12         6           3      0.000000    0.000000
  13         6           3      0.000000    0.000000
  14         9           0      0.000000    0.000000    Roots Converged
 ---------------------------------------------------
 Triplets done: starting singlet calculation
 ---------------------------------------------------
 Iter    Rts Conv    Rts Left    Ttl Dev     Max Dev
 ---------------------------------------------------
  15         0           9      0.000461    0.000059
  16         0           9      0.000132    0.000015
  17         0           9      0.000071    0.000008
  18         0           9      0.000028    0.000004
  19         0           9      0.000014    0.000002
  20         0           9      0.000008    0.000001
  21         0           9      0.000008    0.000001
  22         0           9      0.000005    0.000001
  23         0           9      0.000003    0.000001
  24         0           9      0.000001    0.000000
  25         3           6      0.000001    0.000000
  26         3           6      0.000000    0.000000
  27         3           6      0.000000    0.000000
  28         6           3      0.000000    0.000000
  29         6           3      0.000000    0.000000
  30         6           3      0.000000    0.000000
  31         8           1      0.000000    0.000000
  32         9           0      0.000000    0.000000    Roots Converged
 ---------------------------------------------------
 
 ---------------------------------------------------
         TDDFT/TDA Excitation Energies              
 ---------------------------------------------------

 Excited state   1: excitation energy (eV) =    4.2163
 Total energy for state  1:                 -8417.88588509 au
    Multiplicity: Triplet
    Trans. Mom.:  0.0000 X   0.0000 Y   0.0000 Z
    Strength   :     0.0000000000
    D(220) --> V(  1) amplitude =  0.8035
    D(221) --> V(  1) amplitude =  0.4549

 Excited state   2: excitation energy (eV) =    4.2163
 Total energy for state  2:                 -8417.88588436 au
    Multiplicity: Triplet
    Trans. Mom.:  0.0000 X   0.0000 Y   0.0000 Z
    Strength   :     0.0000000000
    D(220) --> V(  1) amplitude = -0.4561
    D(221) --> V(  1) amplitude =  0.8040

 Excited state   3: excitation energy (eV) =    4.2163
 Total energy for state  3:                 -8417.88588301 au
    Multiplicity: Triplet
    Trans. Mom.:  0.0000 X   0.0000 Y   0.0000 Z
    Strength   :     0.0000000000
    D(219) --> V(  1) amplitude =  0.9232

 Excited state   4: excitation energy (eV) =    4.3113
 Total energy for state  4:                 -8417.88239336 au
    Multiplicity: Triplet
    Trans. Mom.:  0.0000 X   0.0000 Y   0.0000 Z
    Strength   :     0.0000000000
    D(220) --> V(  2) amplitude =  0.5523
    D(220) --> V(  5) amplitude = -0.2837
    D(220) --> V(  6) amplitude =  0.2234
    D(221) --> V(  3) amplitude =  0.5441
    D(221) --> V(  4) amplitude =  0.2439

 Excited state   5: excitation energy (eV) =    4.3114
 Total energy for state  5:                 -8417.88239039 au
    Multiplicity: Triplet
    Trans. Mom.:  0.0000 X   0.0000 Y   0.0000 Z
    Strength   :     0.0000000000
    D(219) --> V(  2) amplitude =  0.4093
    D(219) --> V(  3) amplitude = -0.3689
    D(219) --> V(  5) amplitude =  0.3212
    D(220) --> V(  2) amplitude =  0.2894
    D(220) --> V(  3) amplitude =  0.2538
    D(221) --> V(  2) amplitude =  0.3000
    D(221) --> V(  3) amplitude = -0.2532
    D(221) --> V(  4) amplitude = -0.2225

 Excited state   6: excitation energy (eV) =    4.3114
 Total energy for state  6:                 -8417.88238947 au
    Multiplicity: Triplet
    Trans. Mom.:  0.0000 X   0.0000 Y   0.0000 Z
    Strength   :     0.0000000000
    D(219) --> V(  2) amplitude =  0.2738
    D(219) --> V(  3) amplitude =  0.4697
    D(219) --> V(  4) amplitude = -0.2425
    D(219) --> V(  6) amplitude = -0.2681
    D(220) --> V(  2) amplitude =  0.3501
    D(221) --> V(  2) amplitude = -0.2463
    D(221) --> V(  3) amplitude = -0.3101

 Excited state   7: excitation energy (eV) =    4.3494
 Total energy for state  7:                 -8417.88099362 au
    Multiplicity: Triplet
    Trans. Mom.:  0.0000 X   0.0000 Y   0.0000 Z
    Strength   :     0.0000000000
    D(219) --> V(  2) amplitude =  0.5579
    D(219) --> V(  3) amplitude =  0.2820
    D(220) --> V(  2) amplitude = -0.3096
    D(220) --> V(  5) amplitude =  0.2745
    D(221) --> V(  2) amplitude =  0.2830
    D(221) --> V(  3) amplitude =  0.3913
    D(221) --> V(  4) amplitude =  0.2605

 Excited state   8: excitation energy (eV) =    4.3494
 Total energy for state  8:                 -8417.88099271 au
    Multiplicity: Triplet
    Trans. Mom.:  0.0000 X   0.0000 Y   0.0000 Z
    Strength   :     0.0000000000
    D(219) --> V(  2) amplitude = -0.3136
    D(219) --> V(  3) amplitude =  0.4587
    D(220) --> V(  3) amplitude =  0.3746
    D(220) --> V(  6) amplitude =  0.2683
    D(221) --> V(  2) amplitude =  0.5087

 Excited state   9: excitation energy (eV) =    4.3494
 Total energy for state  9:                 -8417.88099168 au
    Multiplicity: Triplet
    Trans. Mom.:  0.0000 X   0.0000 Y   0.0000 Z
    Strength   :     0.0000000000
    D(219) --> V(  6) amplitude = -0.2206
    D(220) --> V(  3) amplitude =  0.6823
    D(221) --> V(  2) amplitude = -0.4556

 Excited state  10: excitation energy (eV) =    4.4171
 Total energy for state 10:                 -8417.87850421 au
    Multiplicity: Singlet
    Trans. Mom.:  0.0900 X  -0.1942 Y   0.1103 Z
    Strength   :     0.0062738348
    D(220) --> V(  1) amplitude =  0.4743
    D(221) --> V(  1) amplitude =  0.8593

 Excited state  11: excitation energy (eV) =    4.4171
 Total energy for state 11:                 -8417.87850402 au
    Multiplicity: Singlet
    Trans. Mom.: -0.1369 X   0.0459 Y   0.1927 Z
    Strength   :     0.0062735584
    D(220) --> V(  1) amplitude =  0.8572
    D(221) --> V(  1) amplitude = -0.4675

 Excited state  12: excitation energy (eV) =    4.4172
 Total energy for state 12:                 -8417.87850134 au
    Multiplicity: Singlet
    Trans. Mom.:  0.1765 X   0.1348 Y   0.0933 Z
    Strength   :     0.0062779542
    D(219) --> V(  1) amplitude =  0.9754

 Excited state  13: excitation energy (eV) =    4.5031
 Total energy for state 13:                 -8417.87534630 au
    Multiplicity: Singlet
    Trans. Mom.:  0.0001 X   0.0000 Y  -0.0001 Z
    Strength   :     0.0000000015
    D(219) --> V(  2) amplitude =  0.3176
    D(220) --> V(  2) amplitude =  0.9007

 Excited state  14: excitation energy (eV) =    4.5031
 Total energy for state 14:                 -8417.87534548 au
    Multiplicity: Singlet
    Trans. Mom.:  0.0000 X   0.0001 Y   0.0001 Z
    Strength   :     0.0000000011
    D(219) --> V(  2) amplitude = -0.5047
    D(221) --> V(  3) amplitude =  0.8254

 Excited state  15: excitation energy (eV) =    4.5031
 Total energy for state 15:                 -8417.87534456 au
    Multiplicity: Singlet
    Trans. Mom.: -0.0000 X  -0.0000 Y   0.0001 Z
    Strength   :     0.0000000022
    D(219) --> V(  3) amplitude =  0.7316
    D(220) --> V(  3) amplitude = -0.3856
    D(221) --> V(  2) amplitude = -0.4890

 Excited state  16: excitation energy (eV) =    4.5188
 Total energy for state 16:                 -8417.87476820 au
    Multiplicity: Singlet
    Trans. Mom.: -0.0316 X  -0.0258 Y  -0.0179 Z
    Strength   :     0.0002199822
    D(219) --> V(  3) amplitude =  0.2308
    D(220) --> V(  3) amplitude = -0.5589
    D(221) --> V(  2) amplitude =  0.7637

 Excited state  17: excitation energy (eV) =    4.5188
 Total energy for state 17:                 -8417.87476693 au
    Multiplicity: Singlet
    Trans. Mom.: -0.0312 X   0.0229 Y   0.0221 Z
    Strength   :     0.0002192803
    D(219) --> V(  2) amplitude =  0.6211
    D(219) --> V(  3) amplitude =  0.3503
    D(220) --> V(  2) amplitude = -0.3688
    D(220) --> V(  3) amplitude =  0.3397
    D(221) --> V(  3) amplitude =  0.4461

 Excited state  18: excitation energy (eV) =    4.5188
 Total energy for state 18:                 -8417.87476677 au
    Multiplicity: Singlet
    Trans. Mom.:  0.0037 X  -0.0281 Y   0.0343 Z
    Strength   :     0.0002185897
    D(219) --> V(  2) amplitude = -0.4220
    D(219) --> V(  3) amplitude =  0.4674
    D(220) --> V(  3) amplitude =  0.6174
    D(221) --> V(  2) amplitude =  0.3695
 
 ---------------------------------------------------
  SETman timing summary (seconds)
  CPU time            311211.68s
  System time              0.03s
  Wall time           323713.28s



*********SPIN-ORBIT COUPLING JOB BEGINS HERE*********


=======================================================================================
    SPIN-ORBIT COUPLING BETWEEN THE SINGLET GROUND STATE AND EXCITED TRIPLET STATE
=======================================================================================

SOC between the singlet ground state and excited triplet states (ms=0):
T1(ms=0)      0.000000  +  0.001012i    cm-1
T2(ms=0)      0.000000  +  0.002034i    cm-1
T3(ms=0)      0.000000  +  0.000024i    cm-1
T4(ms=0)      0.000000  +  4.228759i    cm-1
T5(ms=0)      0.000000  +  4.224818i    cm-1
T6(ms=0)      0.000000  +  3.878069i    cm-1
T7(ms=0)      0.000000  +  0.003811i    cm-1
T8(ms=0)      0.000000  +  -0.003737i    cm-1
T9(ms=0)      0.000000  +  0.002885i    cm-1
SOC between the singlet ground state and excited triplet states (ms=1):
T1(ms=1)      0.000945  + (-0.003233i)    cm-1
T2(ms=1)      -0.002530  + (-0.001423i)    cm-1
T3(ms=1)      -0.001234  + (-0.000403i)    cm-1
T4(ms=1)      2.939551  + (2.794588i)    cm-1
T5(ms=1)      0.749694  + (-3.984294i)    cm-1
T6(ms=1)      -4.021853  + (1.296271i)    cm-1
T7(ms=1)      -0.003067  + (0.000044i)    cm-1
T8(ms=1)      -0.005017  + (0.011422i)    cm-1
T9(ms=1)      -0.005431  + (0.001190i)    cm-1
SOC between the singlet ground state and excited triplet states (ms=-1):
T1(ms=-1)     0.000945  - (-0.003233i)    cm-1
T2(ms=-1)     -0.002530  - (-0.001423i)    cm-1
T3(ms=-1)     -0.001234  - (-0.000403i)    cm-1
T4(ms=-1)     2.939551  - (2.794588i)    cm-1
T5(ms=-1)     0.749694  - (-3.984294i)    cm-1
T6(ms=-1)     -4.021853  - (1.296271i)    cm-1
T7(ms=-1)     -0.003067  - (0.000044i)    cm-1
T8(ms=-1)     -0.005017  - (0.011422i)    cm-1
T9(ms=-1)     -0.005431  - (0.001190i)    cm-1
Total SOC between the singlet ground state and excited triplet states:
T1      0.004870    cm-1
T2      0.004582    cm-1
T3      0.001836    cm-1
T4      7.126273    cm-1
T5      7.121963    cm-1
T6      7.123950    cm-1
T7      0.005773    cm-1
T8      0.018034    cm-1
T9      0.008376    cm-1




=======================================================================================
                     SPIN-ORBIT COUPLING BETWEEN EXCITED TRIPLET STATES
=======================================================================================

SOC between the T1 (ms=0) state and excited triplet states (ms=1):
T2(ms=1)      -29.968088  + (-34.502163i)    cm-1
T3(ms=1)      -27.541223  + (39.228750i)    cm-1
T4(ms=1)      0.069396  + (0.012952i)    cm-1
T5(ms=1)      -0.115940  + (-0.041163i)    cm-1
T6(ms=1)      0.037596  + (-0.147234i)    cm-1
T7(ms=1)      -10.506632  + (-3.837406i)    cm-1
T8(ms=1)      -1.504334  + (2.785442i)    cm-1
T9(ms=1)      2.959109  + (-13.306550i)    cm-1
SOC between the T1 (ms=0) state and excited triplet states (ms=-1):
T2(ms=-1)     29.968088  + (-34.502163i)    cm-1
T3(ms=-1)     27.541223  + (39.228750i)    cm-1
T4(ms=-1)     -0.069396  + (0.012952i)    cm-1
T5(ms=-1)     0.115940  + (-0.041163i)    cm-1
T6(ms=-1)     -0.037596  + (-0.147234i)    cm-1
T7(ms=-1)     10.506632  + (-3.837406i)    cm-1
T8(ms=-1)     1.504334  + (2.785442i)    cm-1
T9(ms=-1)     -2.959109  + (-13.306550i)    cm-1
SOC between the T1 (ms=1) state and excited triplet states (ms=0):
T2(ms=0)      29.968088  + (-34.502163i)    cm-1
T3(ms=0)      27.541223  + (39.228750i)    cm-1
T4(ms=0)      -0.069396  + (0.012952i)    cm-1
T5(ms=0)      0.115940  + (-0.041163i)    cm-1
T6(ms=0)      -0.037596  + (-0.147234i)    cm-1
T7(ms=0)      10.506632  + (-3.837406i)    cm-1
T8(ms=0)      1.504334  + (2.785442i)    cm-1
T9(ms=0)      -2.959109  + (-13.306550i)    cm-1
SOC between the T1 (ms=1) state and excited triplet states (ms=1):
T2(ms=1)      0.000000  + (-35.849738i)    cm-1
T3(ms=1)      0.000000  + (-29.461295i)    cm-1
T4(ms=1)      0.000000  + (-0.102179i)    cm-1
T5(ms=1)      0.000000  + (0.134668i)    cm-1
T6(ms=1)      0.000000  + (-0.025757i)    cm-1
T7(ms=1)      0.000000  + (-12.166986i)    cm-1
T8(ms=1)      0.000000  + (-1.575315i)    cm-1
T9(ms=1)      0.000000  + (2.725048i)    cm-1
SOC between the T1 (ms=-1) state and excited triplet states (ms=0):
T2(ms=0)      -29.968088  + (-34.502163i)    cm-1
T3(ms=0)      -27.541223  + (39.228750i)    cm-1
T4(ms=0)      0.069396  + (0.012952i)    cm-1
T5(ms=0)      -0.115940  + (-0.041163i)    cm-1
T6(ms=0)      0.037596  + (-0.147234i)    cm-1
T7(ms=0)      -10.506632  + (-3.837406i)    cm-1
T8(ms=0)      -1.504334  + (2.785442i)    cm-1
T9(ms=0)      2.959109  + (-13.306550i)    cm-1
SOC between the T1 (ms=-1) state and excited triplet states (ms=-1):
T2(ms=-1)     0.000000  + (35.849738i)    cm-1
T3(ms=-1)     0.000000  + (29.461295i)    cm-1
T4(ms=-1)     0.000000  + (0.102179i)    cm-1
T5(ms=-1)     0.000000  + (-0.134668i)    cm-1
T6(ms=-1)     0.000000  + (0.025757i)    cm-1
T7(ms=-1)     0.000000  + (12.166986i)    cm-1
T8(ms=-1)     0.000000  + (1.575315i)    cm-1
T9(ms=-1)     0.000000  + (-2.725048i)    cm-1
Total SOC between the T1 state and excited triplet states:
T2      104.519613    cm-1
T3      104.525552    cm-1
T4      0.202028    cm-1
T5      0.311154    cm-1
T6      0.306091    cm-1
T7      28.222882    cm-1
T8      6.711935    cm-1
T9      27.534236    cm-1



SOC between the T2 (ms=0) state and excited triplet states (ms=1):
T3(ms=1)      32.782530  + (1.413000i)    cm-1
T4(ms=1)      0.050590  + (-0.091465i)    cm-1
T5(ms=1)      0.126443  + (-0.082743i)    cm-1
T6(ms=1)      0.076140  + (0.014026i)    cm-1
T7(ms=1)      4.429105  + (0.868392i)    cm-1
T8(ms=1)      -5.790252  + (-8.979057i)    cm-1
T9(ms=1)      -9.548617  + (-2.431748i)    cm-1
SOC between the T2 (ms=0) state and excited triplet states (ms=-1):
T3(ms=-1)     -32.782530  + (1.413000i)    cm-1
T4(ms=-1)     -0.050590  + (-0.091465i)    cm-1
T5(ms=-1)     -0.126443  + (-0.082743i)    cm-1
T6(ms=-1)     -0.076140  + (0.014026i)    cm-1
T7(ms=-1)     -4.429105  + (0.868392i)    cm-1
T8(ms=-1)     5.790252  + (-8.979057i)    cm-1
T9(ms=-1)     9.548617  + (-2.431748i)    cm-1
SOC between the T2 (ms=1) state and excited triplet states (ms=0):
T3(ms=0)      -32.782530  + (1.413000i)    cm-1
T4(ms=0)      -0.050590  + (-0.091465i)    cm-1
T5(ms=0)      -0.126443  + (-0.082743i)    cm-1
T6(ms=0)      -0.076140  + (0.014026i)    cm-1
T7(ms=0)      -4.429105  + (0.868392i)    cm-1
T8(ms=0)      5.790252  + (-8.979057i)    cm-1
T9(ms=0)      9.548617  + (-2.431748i)    cm-1
SOC between the T2 (ms=1) state and excited triplet states (ms=1):
T3(ms=1)      0.000000  + (-57.526325i)    cm-1
T4(ms=1)      0.000000  + (0.042270i)    cm-1
T5(ms=1)      0.000000  + (0.120465i)    cm-1
T6(ms=1)      0.000000  + (-0.203711i)    cm-1
T7(ms=1)      0.000000  + (-5.960300i)    cm-1
T8(ms=1)      0.000000  + (-13.088967i)    cm-1
T9(ms=1)      0.000000  + (11.381561i)    cm-1
SOC between the T2 (ms=-1) state and excited triplet states (ms=0):
T3(ms=0)      32.782530  + (1.413000i)    cm-1
T4(ms=0)      0.050590  + (-0.091465i)    cm-1
T5(ms=0)      0.126443  + (-0.082743i)    cm-1
T6(ms=0)      0.076140  + (0.014026i)    cm-1
T7(ms=0)      4.429105  + (0.868392i)    cm-1
T8(ms=0)      -5.790252  + (-8.979057i)    cm-1
T9(ms=0)      -9.548617  + (-2.431748i)    cm-1
SOC between the T2 (ms=-1) state and excited triplet states (ms=-1):
T3(ms=-1)     0.000000  + (57.526325i)    cm-1
T4(ms=-1)     0.000000  + (-0.042270i)    cm-1
T5(ms=-1)     0.000000  + (-0.120465i)    cm-1
T6(ms=-1)     0.000000  + (0.203711i)    cm-1
T7(ms=-1)     0.000000  + (5.960300i)    cm-1
T8(ms=-1)     0.000000  + (13.088967i)    cm-1
T9(ms=-1)     0.000000  + (-11.381561i)    cm-1
Total SOC between the T2 state and excited triplet states:
T3      104.524253    cm-1
T4      0.217428    cm-1
T5      0.346931    cm-1
T6      0.327066    cm-1
T7      12.350493    cm-1
T8      28.270906    cm-1
T9      25.444799    cm-1



SOC between the T3 (ms=0) state and excited triplet states (ms=1):
T4(ms=1)      0.121753  + (0.110691i)    cm-1
T5(ms=1)      -0.014282  + (0.094702i)    cm-1
T6(ms=1)      0.109761  + (-0.026770i)    cm-1
T7(ms=1)      -7.413894  + (-1.144388i)    cm-1
T8(ms=1)      -6.966043  + (10.322754i)    cm-1
T9(ms=1)      -5.541760  + (2.220930i)    cm-1
SOC between the T3 (ms=0) state and excited triplet states (ms=-1):
T4(ms=-1)     -0.121753  + (0.110691i)    cm-1
T5(ms=-1)     0.014282  + (0.094702i)    cm-1
T6(ms=-1)     -0.109761  + (-0.026770i)    cm-1
T7(ms=-1)     7.413894  + (-1.144388i)    cm-1
T8(ms=-1)     6.966043  + (10.322754i)    cm-1
T9(ms=-1)     5.541760  + (2.220930i)    cm-1
SOC between the T3 (ms=1) state and excited triplet states (ms=0):
T4(ms=0)      -0.121753  + (0.110691i)    cm-1
T5(ms=0)      0.014282  + (0.094702i)    cm-1
T6(ms=0)      -0.109761  + (-0.026770i)    cm-1
T7(ms=0)      7.413894  + (-1.144388i)    cm-1
T8(ms=0)      6.966043  + (10.322754i)    cm-1
T9(ms=0)      5.541760  + (2.220930i)    cm-1
SOC between the T3 (ms=1) state and excited triplet states (ms=1):
T4(ms=1)      0.000000  + (0.189380i)    cm-1
T5(ms=1)      0.000000  + (-0.112043i)    cm-1
T6(ms=1)      0.000000  + (-0.114607i)    cm-1
T7(ms=1)      0.000000  + (14.608731i)    cm-1
T8(ms=1)      0.000000  + (-8.226345i)    cm-1
T9(ms=1)      0.000000  + (4.983188i)    cm-1
SOC between the T3 (ms=-1) state and excited triplet states (ms=0):
T4(ms=0)      0.121753  + (0.110691i)    cm-1
T5(ms=0)      -0.014282  + (0.094702i)    cm-1
T6(ms=0)      0.109761  + (-0.026770i)    cm-1
T7(ms=0)      -7.413894  + (-1.144388i)    cm-1
T8(ms=0)      -6.966043  + (10.322754i)    cm-1
T9(ms=0)      -5.541760  + (2.220930i)    cm-1
SOC between the T3 (ms=-1) state and excited triplet states (ms=-1):
T4(ms=-1)     0.000000  + (-0.189380i)    cm-1
T5(ms=-1)     0.000000  + (0.112043i)    cm-1
T6(ms=-1)     0.000000  + (0.114607i)    cm-1
T7(ms=-1)     0.000000  + (-14.608731i)    cm-1
T8(ms=-1)     0.000000  + (8.226345i)    cm-1
T9(ms=-1)     0.000000  + (-4.983188i)    cm-1
Total SOC between the T3 state and excited triplet states:
T4      0.424304    cm-1
T5      0.248591    cm-1
T6      0.278076    cm-1
T7      25.532956    cm-1
T8      27.489735    cm-1
T9      13.865024    cm-1



SOC between the T4 (ms=0) state and excited triplet states (ms=1):
T5(ms=1)      -7.683936  + (2.467765i)    cm-1
T6(ms=1)      -1.450405  + (7.604884i)    cm-1
T7(ms=1)      -14.530747  + (6.093250i)    cm-1
T8(ms=1)      7.176442  + (-2.349276i)    cm-1
T9(ms=1)      16.074828  + (22.481579i)    cm-1
SOC between the T4 (ms=0) state and excited triplet states (ms=-1):
T5(ms=-1)     7.683936  + (2.467765i)    cm-1
T6(ms=-1)     1.450405  + (7.604884i)    cm-1
T7(ms=-1)     14.530747  + (6.093250i)    cm-1
T8(ms=-1)     -7.176442  + (-2.349276i)    cm-1
T9(ms=-1)     -16.074828  + (22.481579i)    cm-1
SOC between the T4 (ms=1) state and excited triplet states (ms=0):
T5(ms=0)      7.683936  + (2.467765i)    cm-1
T6(ms=0)      1.450405  + (7.604884i)    cm-1
T7(ms=0)      14.530747  + (6.093250i)    cm-1
T8(ms=0)      -7.176442  + (-2.349276i)    cm-1
T9(ms=0)      -16.074828  + (22.481579i)    cm-1
SOC between the T4 (ms=1) state and excited triplet states (ms=1):
T5(ms=1)      0.000000  + (7.393320i)    cm-1
T6(ms=1)      0.000000  + (-8.072020i)    cm-1
T7(ms=1)      0.000000  + (-16.105323i)    cm-1
T8(ms=1)      0.000000  + (-20.443471i)    cm-1
T9(ms=1)      0.000000  + (18.603792i)    cm-1
SOC between the T4 (ms=-1) state and excited triplet states (ms=0):
T5(ms=0)      -7.683936  + (2.467765i)    cm-1
T6(ms=0)      -1.450405  + (7.604884i)    cm-1
T7(ms=0)      -14.530747  + (6.093250i)    cm-1
T8(ms=0)      7.176442  + (-2.349276i)    cm-1
T9(ms=0)      16.074828  + (22.481579i)    cm-1
SOC between the T4 (ms=-1) state and excited triplet states (ms=-1):
T5(ms=-1)     0.000000  + (-7.393320i)    cm-1
T6(ms=-1)     0.000000  + (8.072020i)    cm-1
T7(ms=-1)     0.000000  + (16.105323i)    cm-1
T8(ms=-1)     0.000000  + (20.443471i)    cm-1
T9(ms=-1)     0.000000  + (-18.603792i)    cm-1
Total SOC between the T4 state and excited triplet states:
T5      19.231571    cm-1
T6      19.237119    cm-1
T7      38.882439    cm-1
T8      32.618287    cm-1
T9      61.216730    cm-1



SOC between the T5 (ms=0) state and excited triplet states (ms=1):
T6(ms=1)      5.649701  + (5.385031i)    cm-1
T7(ms=1)      -17.988558  + (4.967193i)    cm-1
T8(ms=1)      -16.635680  + (-10.041192i)    cm-1
T9(ms=1)      -13.081000  + (13.003569i)    cm-1
SOC between the T5 (ms=0) state and excited triplet states (ms=-1):
T6(ms=-1)     -5.649701  + (5.385031i)    cm-1
T7(ms=-1)     17.988558  + (4.967193i)    cm-1
T8(ms=-1)     16.635680  + (-10.041192i)    cm-1
T9(ms=-1)     13.081000  + (13.003569i)    cm-1
SOC between the T5 (ms=1) state and excited triplet states (ms=0):
T6(ms=0)      -5.649701  + (5.385031i)    cm-1
T7(ms=0)      17.988558  + (4.967193i)    cm-1
T8(ms=0)      16.635680  + (-10.041192i)    cm-1
T9(ms=0)      13.081000  + (13.003569i)    cm-1
SOC between the T5 (ms=1) state and excited triplet states (ms=1):
T6(ms=1)      0.000000  + (8.089636i)    cm-1
T7(ms=1)      0.000000  + (-14.355312i)    cm-1
T8(ms=1)      0.000000  + (22.942523i)    cm-1
T9(ms=1)      0.000000  + (-17.026685i)    cm-1
SOC between the T5 (ms=-1) state and excited triplet states (ms=0):
T6(ms=0)      5.649701  + (5.385031i)    cm-1
T7(ms=0)      -17.988558  + (4.967193i)    cm-1
T8(ms=0)      -16.635680  + (-10.041192i)    cm-1
T9(ms=0)      -13.081000  + (13.003569i)    cm-1
SOC between the T5 (ms=-1) state and excited triplet states (ms=-1):
T6(ms=-1)     0.000000  + (-8.089636i)    cm-1
T7(ms=-1)     0.000000  + (14.355312i)    cm-1
T8(ms=-1)     0.000000  + (-22.942523i)    cm-1
T9(ms=-1)     0.000000  + (17.026685i)    cm-1
Total SOC between the T5 state and excited triplet states:
T6      19.353427    cm-1
T7      42.487585    cm-1
T8      50.626121    cm-1
T9      44.052666    cm-1



SOC between the T6 (ms=0) state and excited triplet states (ms=1):
T7(ms=1)      -13.928835  + (2.153210i)    cm-1
T8(ms=1)      2.141170  + (-25.783647i)    cm-1
T9(ms=1)      9.272983  + (-8.287375i)    cm-1
SOC between the T6 (ms=0) state and excited triplet states (ms=-1):
T7(ms=-1)     13.928835  + (2.153210i)    cm-1
T8(ms=-1)     -2.141170  + (-25.783647i)    cm-1
T9(ms=-1)     -9.272983  + (-8.287375i)    cm-1
SOC between the T6 (ms=1) state and excited triplet states (ms=0):
T7(ms=0)      13.928835  + (2.153210i)    cm-1
T8(ms=0)      -2.141170  + (-25.783647i)    cm-1
T9(ms=0)      -9.272983  + (-8.287375i)    cm-1
SOC between the T6 (ms=1) state and excited triplet states (ms=1):
T7(ms=1)      0.000000  + (33.144067i)    cm-1
T8(ms=1)      0.000000  + (-2.771510i)    cm-1
T9(ms=1)      0.000000  + (-1.678809i)    cm-1
SOC between the T6 (ms=-1) state and excited triplet states (ms=0):
T7(ms=0)      -13.928835  + (2.153210i)    cm-1
T8(ms=0)      2.141170  + (-25.783647i)    cm-1
T9(ms=0)      9.272983  + (-8.287375i)    cm-1
SOC between the T6 (ms=-1) state and excited triplet states (ms=-1):
T7(ms=-1)     0.000000  + (-33.144067i)    cm-1
T8(ms=-1)     0.000000  + (2.771510i)    cm-1
T9(ms=-1)     0.000000  + (1.678809i)    cm-1
Total SOC between the T6 state and excited triplet states:
T7      54.696008    cm-1
T8      51.893033    cm-1
T9      24.986236    cm-1



SOC between the T7 (ms=0) state and excited triplet states (ms=1):
T8(ms=1)      15.391292  + (6.340438i)    cm-1
T9(ms=1)      19.925352  + (4.139121i)    cm-1
SOC between the T7 (ms=0) state and excited triplet states (ms=-1):
T8(ms=-1)     -15.391292  + (6.340438i)    cm-1
T9(ms=-1)     -19.925352  + (4.139121i)    cm-1
SOC between the T7 (ms=1) state and excited triplet states (ms=0):
T8(ms=0)      -15.391292  + (6.340438i)    cm-1
T9(ms=0)      -19.925352  + (4.139121i)    cm-1
SOC between the T7 (ms=1) state and excited triplet states (ms=1):
T8(ms=1)      0.000000  + (28.537345i)    cm-1
T9(ms=1)      0.000000  + (-23.364947i)    cm-1
SOC between the T7 (ms=-1) state and excited triplet states (ms=0):
T8(ms=0)      15.391292  + (6.340438i)    cm-1
T9(ms=0)      19.925352  + (4.139121i)    cm-1
SOC between the T7 (ms=-1) state and excited triplet states (ms=-1):
T8(ms=-1)     0.000000  + (-28.537345i)    cm-1
T9(ms=-1)     0.000000  + (23.364947i)    cm-1
Total SOC between the T7 state and excited triplet states:
T8      52.317609    cm-1
T9      52.425656    cm-1



SOC between the T8 (ms=0) state and excited triplet states (ms=1):
T9(ms=1)      7.233480  + (-25.037251i)    cm-1
SOC between the T8 (ms=0) state and excited triplet states (ms=-1):
T9(ms=-1)     -7.233480  + (-25.037251i)    cm-1
SOC between the T8 (ms=1) state and excited triplet states (ms=0):
T9(ms=0)      -7.233480  + (-25.037251i)    cm-1
SOC between the T8 (ms=1) state and excited triplet states (ms=1):
T9(ms=1)      0.000000  + (3.418410i)    cm-1
SOC between the T8 (ms=-1) state and excited triplet states (ms=0):
T9(ms=0)      7.233480  + (-25.037251i)    cm-1
SOC between the T8 (ms=-1) state and excited triplet states (ms=-1):
T9(ms=-1)     0.000000  + (-3.418410i)    cm-1
Total SOC between the T8 state and excited triplet states:
T9      52.346153    cm-1







=======================================================================================
         SPIN-ORBIT COUPLING BETWEEN EXCITED SINGLET STATES AND TRIPLET STATES
=======================================================================================

SOC between the S1 state and excited triplet states (ms=0):
T1(ms=0)      0.000000  +  19.799374i    cm-1
T2(ms=0)      0.000000  +  -31.517439i    cm-1
T3(ms=0)      0.000000  +  -57.674344i    cm-1
T4(ms=0)      0.000000  +  1.326175i    cm-1
T5(ms=0)      0.000000  +  -4.029960i    cm-1
T6(ms=0)      0.000000  +  2.937701i    cm-1
T7(ms=0)      0.000000  +  -11.524399i    cm-1
T8(ms=0)      0.000000  +  -7.079453i    cm-1
T9(ms=0)      0.000000  +  7.145778i    cm-1
SOC between the S1 state and excited triplet states (ms=1):
T1(ms=1)      (-16.570618)  + (-18.591543i)    cm-1
T2(ms=1)      (26.902115)  + (30.722952i)    cm-1
T3(ms=1)      (6.596420)  + (-35.693261i)    cm-1
T4(ms=1)      (1.951971)  + (-0.872381i)    cm-1
T5(ms=1)      (-0.571266)  + (-1.681763i)    cm-1
T6(ms=1)      (1.303320)  + (-3.334710i)    cm-1
T7(ms=1)      (5.751994)  + (2.422305i)    cm-1
T8(ms=1)      (3.750277)  + (1.938724i)    cm-1
T9(ms=1)      (2.159233)  + (10.826598i)    cm-1
SOC between the S1 state and excited triplet states (ms=-1):
T1(ms=-1)    -(-16.570618)  + (-18.591543i)    cm-1
T2(ms=-1)    -(26.902115)  + (30.722952i)    cm-1
T3(ms=-1)    -(6.596420)  + (-35.693261i)    cm-1
T4(ms=-1)    -(1.951971)  + (-0.872381i)    cm-1
T5(ms=-1)    -(-0.571266)  + (-1.681763i)    cm-1
T6(ms=-1)    -(1.303320)  + (-3.334710i)    cm-1
T7(ms=-1)    -(5.751994)  + (2.422305i)    cm-1
T8(ms=-1)    -(3.750277)  + (1.938724i)    cm-1
T9(ms=-1)    -(2.159233)  + (10.826598i)    cm-1
Total SOC between the S1 state and excited triplet states:
T1      40.403922    cm-1
T2      65.792067    cm-1
T3      77.209929    cm-1
T4      3.301700    cm-1
T5      4.748676    cm-1
T6      5.853884    cm-1
T7      14.516121    cm-1
T8      9.260946    cm-1
T9      17.170241    cm-1



SOC between the S2 state and excited triplet states (ms=0):
T1(ms=0)      0.000000  +  -27.928626i    cm-1
T2(ms=0)      0.000000  +  -12.078178i    cm-1
T3(ms=0)      0.000000  +  34.890178i    cm-1
T4(ms=0)      0.000000  +  1.308202i    cm-1
T5(ms=0)      0.000000  +  1.380374i    cm-1
T6(ms=0)      0.000000  +  -2.910131i    cm-1
T7(ms=0)      0.000000  +  0.450614i    cm-1
T8(ms=0)      0.000000  +  7.951412i    cm-1
T9(ms=0)      0.000000  +  -6.548387i    cm-1
SOC between the S2 state and excited triplet states (ms=1):
T1(ms=1)      (22.975030)  + (35.509218i)    cm-1
T2(ms=1)      (20.421720)  + (18.874368i)    cm-1
T3(ms=1)      (43.900835)  + (-20.006452i)    cm-1
T4(ms=1)      (0.447803)  + (2.391676i)    cm-1
T5(ms=1)      (-3.989441)  + (0.937863i)    cm-1
T6(ms=1)      (-0.413046)  + (-2.203476i)    cm-1
T7(ms=1)      (8.696172)  + (2.461285i)    cm-1
T8(ms=1)      (-2.800039)  + (-8.860665i)    cm-1
T9(ms=1)      (-7.689234)  + (3.927872i)    cm-1
SOC between the S2 state and excited triplet states (ms=-1):
T1(ms=-1)    -(22.975030)  + (35.509218i)    cm-1
T2(ms=-1)    -(20.421720)  + (18.874368i)    cm-1
T3(ms=-1)    -(43.900835)  + (-20.006452i)    cm-1
T4(ms=-1)    -(0.447803)  + (2.391676i)    cm-1
T5(ms=-1)    -(-3.989441)  + (0.937863i)    cm-1
T6(ms=-1)    -(-0.413046)  + (-2.203476i)    cm-1
T7(ms=-1)    -(8.696172)  + (2.461285i)    cm-1
T8(ms=-1)    -(-2.800039)  + (-8.860665i)    cm-1
T9(ms=-1)    -(-7.689234)  + (3.927872i)    cm-1
Total SOC between the S2 state and excited triplet states:
T1      66.011524    cm-1
T2      41.139509    cm-1
T3      76.631634    cm-1
T4      3.681396    cm-1
T5      5.957842    cm-1
T6      4.303567    cm-1
T7      12.789282    cm-1
T8      15.359954    cm-1
T9      13.855915    cm-1



SOC between the S3 state and excited triplet states (ms=0):
T1(ms=0)      0.000000  +  34.321732i    cm-1
T2(ms=0)      0.000000  +  62.246325i    cm-1
T3(ms=0)      0.000000  +  -3.920136i    cm-1
T4(ms=0)      0.000000  +  -4.266634i    cm-1
T5(ms=0)      0.000000  +  1.918448i    cm-1
T6(ms=0)      0.000000  +  2.532639i    cm-1
T7(ms=0)      0.000000  +  12.698064i    cm-1
T8(ms=0)      0.000000  +  -8.060456i    cm-1
T9(ms=0)      0.000000  +  5.075913i    cm-1
SOC between the S3 state and excited triplet states (ms=1):
T1(ms=1)      (-31.709606)  + (37.038391i)    cm-1
T2(ms=1)      (31.810807)  + (-1.042160i)    cm-1
T3(ms=1)      (-5.453552)  + (2.701580i)    cm-1
T4(ms=1)      (2.662147)  + (2.302649i)    cm-1
T5(ms=1)      (0.535977)  + (1.587802i)    cm-1
T6(ms=1)      (2.023038)  + (-0.012086i)    cm-1
T7(ms=1)      (5.327741)  + (0.673062i)    cm-1
T8(ms=1)      (6.358600)  + (-7.863672i)    cm-1
T9(ms=1)      (5.729967)  + (-2.476138i)    cm-1
SOC between the S3 state and excited triplet states (ms=-1):
T1(ms=-1)    -(-31.709606)  + (37.038391i)    cm-1
T2(ms=-1)    -(31.810807)  + (-1.042160i)    cm-1
T3(ms=-1)    -(-5.453552)  + (2.701580i)    cm-1
T4(ms=-1)    -(2.662147)  + (2.302649i)    cm-1
T5(ms=-1)    -(0.535977)  + (1.587802i)    cm-1
T6(ms=-1)    -(2.023038)  + (-0.012086i)    cm-1
T7(ms=-1)    -(5.327741)  + (0.673062i)    cm-1
T8(ms=-1)    -(6.358600)  + (-7.863672i)    cm-1
T9(ms=-1)    -(5.729967)  + (-2.476138i)    cm-1
Total SOC between the S3 state and excited triplet states:
T1      77.023791    cm-1
T2      76.815571    cm-1
T3      9.457642    cm-1
T4      6.556112    cm-1
T5      3.049133    cm-1
T6      3.820985    cm-1
T7      14.795827    cm-1
T8      16.416736    cm-1
T9      10.182950    cm-1



SOC between the S4 state and excited triplet states (ms=0):
T1(ms=0)      0.000000  +  -0.981284i    cm-1
T2(ms=0)      0.000000  +  -0.076859i    cm-1
T3(ms=0)      0.000000  +  1.517632i    cm-1
T4(ms=0)      0.000000  +  1.647009i    cm-1
T5(ms=0)      0.000000  +  4.623668i    cm-1
T6(ms=0)      0.000000  +  -6.844959i    cm-1
T7(ms=0)      0.000000  +  -4.425334i    cm-1
T8(ms=0)      0.000000  +  -11.457708i    cm-1
T9(ms=0)      0.000000  +  9.869241i    cm-1
SOC between the S4 state and excited triplet states (ms=1):
T1(ms=1)      (-0.695218)  + (2.584659i)    cm-1
T2(ms=1)      (-3.304226)  + (2.880627i)    cm-1
T3(ms=1)      (-3.800014)  + (-3.166848i)    cm-1
T4(ms=1)      (-9.993122)  + (11.739096i)    cm-1
T5(ms=1)      (21.598163)  + (1.628052i)    cm-1
T6(ms=1)      (-3.281330)  + (-20.468327i)    cm-1
T7(ms=1)      (40.670754)  + (-12.504020i)    cm-1
T8(ms=1)      (0.940903)  + (29.255644i)    cm-1
T9(ms=1)      (-17.762466)  + (-30.157827i)    cm-1
SOC between the S4 state and excited triplet states (ms=-1):
T1(ms=-1)    -(-0.695218)  + (2.584659i)    cm-1
T2(ms=-1)    -(-3.304226)  + (2.880627i)    cm-1
T3(ms=-1)    -(-3.800014)  + (-3.166848i)    cm-1
T4(ms=-1)    -(-9.993122)  + (11.739096i)    cm-1
T5(ms=-1)    -(21.598163)  + (1.628052i)    cm-1
T6(ms=-1)    -(-3.281330)  + (-20.468327i)    cm-1
T7(ms=-1)    -(40.670754)  + (-12.504020i)    cm-1
T8(ms=-1)    -(0.940903)  + (29.255644i)    cm-1
T9(ms=-1)    -(-17.762466)  + (-30.157827i)    cm-1
Total SOC between the S4 state and excited triplet states:
T1      3.910307    cm-1
T2      6.199819    cm-1
T3      7.158301    cm-1
T4      21.864362    cm-1
T5      30.978068    cm-1
T6      30.104693    cm-1
T7      60.336597    cm-1
T8      42.951543    cm-1
T9      50.471788    cm-1



SOC between the S5 state and excited triplet states (ms=0):
T1(ms=0)      0.000000  +  -2.658550i    cm-1
T2(ms=0)      0.000000  +  2.244654i    cm-1
T3(ms=0)      0.000000  +  6.135783i    cm-1
T4(ms=0)      0.000000  +  -4.101873i    cm-1
T5(ms=0)      0.000000  +  24.500172i    cm-1
T6(ms=0)      0.000000  +  -22.239185i    cm-1
T7(ms=0)      0.000000  +  -38.864740i    cm-1
T8(ms=0)      0.000000  +  -34.743853i    cm-1
T9(ms=0)      0.000000  +  32.941626i    cm-1
SOC between the S5 state and excited triplet states (ms=1):
T1(ms=1)      (-2.248097)  + (-3.928398i)    cm-1
T2(ms=1)      (2.020508)  + (1.015208i)    cm-1
T3(ms=1)      (-0.600999)  + (-1.306958i)    cm-1
T4(ms=1)      (11.033195)  + (-14.723245i)    cm-1
T5(ms=1)      (3.506435)  + (-12.354564i)    cm-1
T6(ms=1)      (8.755361)  + (-6.058464i)    cm-1
T7(ms=1)      (-12.104680)  + (-0.464033i)    cm-1
T8(ms=1)      (-17.270504)  + (-30.418400i)    cm-1
T9(ms=1)      (-16.653561)  + (-21.618595i)    cm-1
SOC between the S5 state and excited triplet states (ms=-1):
T1(ms=-1)    -(-2.248097)  + (-3.928398i)    cm-1
T2(ms=-1)    -(2.020508)  + (1.015208i)    cm-1
T3(ms=-1)    -(-0.600999)  + (-1.306958i)    cm-1
T4(ms=-1)    -(11.033195)  + (-14.723245i)    cm-1
T5(ms=-1)    -(3.506435)  + (-12.354564i)    cm-1
T6(ms=-1)    -(8.755361)  + (-6.058464i)    cm-1
T7(ms=-1)    -(-12.104680)  + (-0.464033i)    cm-1
T8(ms=-1)    -(-17.270504)  + (-30.418400i)    cm-1
T9(ms=-1)    -(-16.653561)  + (-21.618595i)    cm-1
Total SOC between the S5 state and excited triplet states:
T1      6.931117    cm-1
T2      3.907003    cm-1
T3      6.464248    cm-1
T4      26.340768    cm-1
T5      30.497854    cm-1
T6      26.857103    cm-1
T7      42.472877    cm-1
T8      60.450261    cm-1
T9      50.740124    cm-1



SOC between the S6 state and excited triplet states (ms=0):
T1(ms=0)      0.000000  +  -3.561179i    cm-1
T2(ms=0)      0.000000  +  -6.284111i    cm-1
T3(ms=0)      0.000000  +  0.544010i    cm-1
T4(ms=0)      0.000000  +  27.154177i    cm-1
T5(ms=0)      0.000000  +  -11.764753i    cm-1
T6(ms=0)      0.000000  +  -16.873073i    cm-1
T7(ms=0)      0.000000  +  49.522980i    cm-1
T8(ms=0)      0.000000  +  -32.970219i    cm-1
T9(ms=0)      0.000000  +  21.027937i    cm-1
SOC between the S6 state and excited triplet states (ms=1):
T1(ms=1)      (-3.218553)  + (2.022740i)    cm-1
T2(ms=1)      (2.009796)  + (-1.438502i)    cm-1
T3(ms=1)      (-1.673132)  + (1.712840i)    cm-1
T4(ms=1)      (12.863200)  + (7.092329i)    cm-1
T5(ms=1)      (9.800377)  + (8.100745i)    cm-1
T6(ms=1)      (11.281728)  + (9.530667i)    cm-1
T7(ms=1)      (-7.328718)  + (3.559098i)    cm-1
T8(ms=1)      (-23.392688)  + (13.295796i)    cm-1
T9(ms=1)      (-26.794522)  + (22.667115i)    cm-1
SOC between the S6 state and excited triplet states (ms=-1):
T1(ms=-1)    -(-3.218553)  + (2.022740i)    cm-1
T2(ms=-1)    -(2.009796)  + (-1.438502i)    cm-1
T3(ms=-1)    -(-1.673132)  + (1.712840i)    cm-1
T4(ms=-1)    -(12.863200)  + (7.092329i)    cm-1
T5(ms=-1)    -(9.800377)  + (8.100745i)    cm-1
T6(ms=-1)    -(11.281728)  + (9.530667i)    cm-1
T7(ms=-1)    -(-7.328718)  + (3.559098i)    cm-1
T8(ms=-1)    -(-23.392688)  + (13.295796i)    cm-1
T9(ms=-1)    -(-26.794522)  + (22.667115i)    cm-1
Total SOC between the S6 state and excited triplet states:
T1      6.448497    cm-1
T2      7.190771    cm-1
T3      3.429625    cm-1
T4      34.188820    cm-1
T5      21.488330    cm-1
T6      26.850002    cm-1
T7      50.845650    cm-1
T8      50.349056    cm-1
T9      53.904204    cm-1



SOC between the S7 state and excited triplet states (ms=0):
T1(ms=0)      0.000000  +  4.461350i    cm-1
T2(ms=0)      0.000000  +  8.423342i    cm-1
T3(ms=0)      0.000000  +  -0.230440i    cm-1
T4(ms=0)      0.000000  +  42.243022i    cm-1
T5(ms=0)      0.000000  +  -20.285830i    cm-1
T6(ms=0)      0.000000  +  -23.900209i    cm-1
T7(ms=0)      0.000000  +  -23.812079i    cm-1
T8(ms=0)      0.000000  +  14.207979i    cm-1
T9(ms=0)      0.000000  +  -8.788862i    cm-1
SOC between the S7 state and excited triplet states (ms=1):
T1(ms=1)      (-4.143140)  + (5.177020i)    cm-1
T2(ms=1)      (4.285125)  + (-0.161775i)    cm-1
T3(ms=1)      (-0.586725)  + (0.396020i)    cm-1
T4(ms=1)      (-26.015265)  + (-23.394348i)    cm-1
T5(ms=1)      (-4.275574)  + (-16.347427i)    cm-1
T6(ms=1)      (-19.777205)  + (0.071923i)    cm-1
T7(ms=1)      (-10.038852)  + (-1.269182i)    cm-1
T8(ms=1)      (-11.500931)  + (15.072857i)    cm-1
T9(ms=1)      (-10.167831)  + (4.830271i)    cm-1
SOC between the S7 state and excited triplet states (ms=-1):
T1(ms=-1)    -(-4.143140)  + (5.177020i)    cm-1
T2(ms=-1)    -(4.285125)  + (-0.161775i)    cm-1
T3(ms=-1)    -(-0.586725)  + (0.396020i)    cm-1
T4(ms=-1)    -(-26.015265)  + (-23.394348i)    cm-1
T5(ms=-1)    -(-4.275574)  + (-16.347427i)    cm-1
T6(ms=-1)    -(-19.777205)  + (0.071923i)    cm-1
T7(ms=-1)    -(-10.038852)  + (-1.269182i)    cm-1
T8(ms=-1)    -(-11.500931)  + (15.072857i)    cm-1
T9(ms=-1)    -(-10.167831)  + (4.830271i)    cm-1
Total SOC between the S7 state and excited triplet states:
T1      10.384505    cm-1
T2      10.379288    cm-1
T3      1.027258    cm-1
T4      65.058835    cm-1
T5      31.345696    cm-1
T6      36.790026    cm-1
T7      27.781178    cm-1
T8      30.344547    cm-1
T9      18.184518    cm-1



SOC between the S8 state and excited triplet states (ms=0):
T1(ms=0)      0.000000  +  4.712657i    cm-1
T2(ms=0)      0.000000  +  -0.184603i    cm-1
T3(ms=0)      0.000000  +  -7.693428i    cm-1
T4(ms=0)      0.000000  +  7.116832i    cm-1
T5(ms=0)      0.000000  +  29.224593i    cm-1
T6(ms=0)      0.000000  +  -39.589096i    cm-1
T7(ms=0)      0.000000  +  9.505796i    cm-1
T8(ms=0)      0.000000  +  19.424953i    cm-1
T9(ms=0)      0.000000  +  -17.085729i    cm-1
SOC between the S8 state and excited triplet states (ms=1):
T1(ms=1)      (-3.910169)  + (-5.229268i)    cm-1
T2(ms=1)      (-0.707337)  + (-0.429493i)    cm-1
T3(ms=1)      (-4.919813)  + (0.275246i)    cm-1
T4(ms=1)      (-5.651965)  + (24.144138i)    cm-1
T5(ms=1)      (-32.780425)  + (15.327211i)    cm-1
T6(ms=1)      (-10.225180)  + (-4.806948i)    cm-1
T7(ms=1)      (9.292297)  + (2.010563i)    cm-1
T8(ms=1)      (-8.089751)  + (-15.692389i)    cm-1
T9(ms=1)      (-14.877031)  + (-2.300370i)    cm-1
SOC between the S8 state and excited triplet states (ms=-1):
T1(ms=-1)    -(-3.910169)  + (-5.229268i)    cm-1
T2(ms=-1)    -(-0.707337)  + (-0.429493i)    cm-1
T3(ms=-1)    -(-4.919813)  + (0.275246i)    cm-1
T4(ms=-1)    -(-5.651965)  + (24.144138i)    cm-1
T5(ms=-1)    -(-32.780425)  + (15.327211i)    cm-1
T6(ms=-1)    -(-10.225180)  + (-4.806948i)    cm-1
T7(ms=-1)    -(9.292297)  + (2.010563i)    cm-1
T8(ms=-1)    -(-8.089751)  + (-15.692389i)    cm-1
T9(ms=-1)    -(-14.877031)  + (-2.300370i)    cm-1
Total SOC between the S8 state and excited triplet states:
T1      10.367183    cm-1
T2      1.184760    cm-1
T3      10.380244    cm-1
T4      35.782922    cm-1
T5      58.932471    cm-1
T6      42.692138    cm-1
T7      16.466282    cm-1
T8      31.634145    cm-1
T9      27.297575    cm-1



SOC between the S9 state and excited triplet states (ms=0):
T1(ms=0)      0.000000  +  -0.743909i    cm-1
T2(ms=0)      0.000000  +  4.466056i    cm-1
T3(ms=0)      0.000000  +  4.857844i    cm-1
T4(ms=0)      0.000000  +  17.287379i    cm-1
T5(ms=0)      0.000000  +  -29.411064i    cm-1
T6(ms=0)      0.000000  +  13.219561i    cm-1
T7(ms=0)      0.000000  +  -18.421958i    cm-1
T8(ms=0)      0.000000  +  -5.222043i    cm-1
T9(ms=0)      0.000000  +  6.505466i    cm-1
SOC between the S9 state and excited triplet states (ms=1):
T1(ms=1)      (0.632704)  + (0.068827i)    cm-1
T2(ms=1)      (-4.502651)  + (-4.850932i)    cm-1
T3(ms=1)      (-3.449540)  + (5.518316i)    cm-1
T4(ms=1)      (19.382276)  + (3.018727i)    cm-1
T5(ms=1)      (-22.638478)  + (-10.554419i)    cm-1
T6(ms=1)      (9.923238)  + (-38.880375i)    cm-1
T7(ms=1)      (16.707252)  + (6.028812i)    cm-1
T8(ms=1)      (3.957973)  + (-4.213376i)    cm-1
T9(ms=1)      (-2.761717)  + (21.109875i)    cm-1
SOC between the S9 state and excited triplet states (ms=-1):
T1(ms=-1)    -(0.632704)  + (0.068827i)    cm-1
T2(ms=-1)    -(-4.502651)  + (-4.850932i)    cm-1
T3(ms=-1)    -(-3.449540)  + (5.518316i)    cm-1
T4(ms=-1)    -(19.382276)  + (3.018727i)    cm-1
T5(ms=-1)    -(-22.638478)  + (-10.554419i)    cm-1
T6(ms=-1)    -(9.923238)  + (-38.880375i)    cm-1
T7(ms=-1)    -(16.707252)  + (6.028812i)    cm-1
T8(ms=-1)    -(3.957973)  + (-4.213376i)    cm-1
T9(ms=-1)    -(-2.761717)  + (21.109875i)    cm-1
Total SOC between the S9 state and excited triplet states:
T1      1.167691    cm-1
T2      10.370943    cm-1
T3      10.406773    cm-1
T4      32.686758    cm-1
T5      45.965243    cm-1
T6      58.267189    cm-1
T7      31.150060    cm-1
T8      9.700820    cm-1
T9      30.803067    cm-1






            *********SOC CODE ENDS HERE*********




                    STATE-TO-STATE TRANSITION MOMENTS


    Electron Dipole Moments of Ground State
 -----------------------------------------------------
   State     X           Y           Z(a.u.) 
 -----------------------------------------------------
       0     0.005305   -0.005570   -0.015457
 -----------------------------------------------------

 Within CIS/TDA Excited States:

    Electron Dipole Moments of Triplet Excited State
 -----------------------------------------------------
   State     X           Y           Z(a.u.) 
 -----------------------------------------------------
       1    -0.162059   -0.012980   -0.009898
       2     0.077765   -0.108309   -0.151891
       3     0.100664    0.104185    0.114119
       4     0.123572    0.106685    0.094780
       5     0.035507   -0.165878   -0.056176
       6    -0.142871    0.042054   -0.085979
       7    -0.004900    0.031520    0.095322
       8     0.207722    0.036403   -0.066450
       9    -0.185819   -0.084820   -0.076099
 -----------------------------------------------------

                Transition Moments Between Ground and Triplet Excited States
 --------------------------------------------------------------------------------
    States   X          Y          Z           Strength(a.u.)
 --------------------------------------------------------------------------------
    0    1   0.000000   0.000000   0.000000              0
    0    2   0.000000   0.000000   0.000000              0
    0    3   0.000000   0.000000   0.000000              0
    0    4   0.000000   0.000000   0.000000              0
    0    5   0.000000   0.000000   0.000000              0
    0    6   0.000000   0.000000   0.000000              0
    0    7   0.000000   0.000000   0.000000              0
    0    8   0.000000   0.000000   0.000000              0
    0    9   0.000000   0.000000   0.000000              0
 --------------------------------------------------------------------------------

                Transition Moments Between Triplet Excited States
 --------------------------------------------------------------------------------
    States   X          Y          Z           Strength(a.u.)
 --------------------------------------------------------------------------------
    1    2  -0.027308   0.102576  -0.078646   8.425206E-09
    1    3   0.024539   0.085678  -0.073827   1.859029E-08
    1    4   0.019496  -0.010777  -0.007689   1.292759E-06
    1    5   0.011823   0.014215   0.012131   1.139284E-06
    1    6  -0.006762  -0.005083  -0.004206   2.080221E-07
    1    7  -0.035427   0.171070  -0.135739   0.0001596087
    1    8   0.225834   0.032045  -0.027081   0.0001720853
    1    9   0.005907  -0.038295   0.038688   9.780909E-06
    2    3  -0.082991   0.017689   0.013818   6.691175E-09
    2    4   0.001974   0.015610  -0.017343   1.276244E-06
    2    5   0.005921   0.003066   0.007535   2.358115E-07
    2    6   0.014189   0.012545   0.011177   1.126834E-06
    2    7   0.036299  -0.103055  -0.162857   0.0001253996
    2    8   0.006570  -0.122588   0.111721   8.985105E-05
    2    9   0.146525  -0.110494  -0.071666    0.000126604
    3    4  -0.001362   0.002913  -0.001610   3.009017E-08
    3    5  -0.006316   0.018457  -0.012970   1.277795E-06
    3    6  -0.016378   0.005671   0.016286   1.317394E-06
    3    7  -0.042408   0.092556   0.084132   5.685782E-05
    3    8   0.001795  -0.077575   0.135626   7.959906E-05
    3    9  -0.166267  -0.143280  -0.120759    0.000204643
    4    5   0.073932  -0.024301  -0.064448   2.025976E-08
    4    6  -0.026653   0.077239  -0.049791   2.377934E-08
    4    7   0.008184   0.045115  -0.051822   4.467956E-06
    4    8  -0.059461   0.032242   0.024038   4.811708E-06
    4    9  -0.007349   0.020730  -0.013696   6.273374E-07
    5    6  -0.066968  -0.047636   0.114506    1.21777E-08
    5    7   0.010705   0.035607   0.005096   1.311488E-06
    5    8  -0.039000  -0.029154  -0.045192   4.112192E-06
    5    9   0.016995  -0.054770   0.036478   4.307328E-06
    6    7   0.015963   0.038885   0.049928   3.963903E-06
    6    8   0.006201   0.018097   0.023376   8.496003E-07
    6    9   0.067713   0.004299  -0.025081    4.87609E-06
    7    8  -0.021668   0.130456  -0.144676   2.320761E-08
    7    9  -0.056281   0.151169   0.104899   4.781908E-08
    8    9   0.045576  -0.006613   0.058612   3.820148E-09
 --------------------------------------------------------------------------------

 Within CIS/TDA Excited States:

    Electron Dipole Moments of Singlet Excited State
 -----------------------------------------------------
   State     X           Y           Z(a.u.) 
 -----------------------------------------------------
      10    -0.206992    0.093624   -0.190882
      11     0.093331   -0.269342   -0.078364
      12     0.130205    0.158271    0.220695
      13    -0.070126   -0.126414   -0.031481
      14     0.113281    0.069342   -0.276462
      15    -0.026779    0.039081    0.258619
      16    -0.073092   -0.101961   -0.155739
      17    -0.080297    0.113351    0.106232
      18     0.171408   -0.027827    0.002939
 -----------------------------------------------------

                Transition Moments Between Ground and Singlet Excited States
 --------------------------------------------------------------------------------
    States   X          Y          Z           Strength(a.u.)
 --------------------------------------------------------------------------------
    0   10   0.090021  -0.194195   0.110267    0.006273835
    0   11  -0.136886   0.045915   0.192680    0.006273558
    0   12   0.176475   0.134784   0.093281    0.006277954
    0   13   0.000083   0.000044  -0.000066   1.451566E-09
    0   14   0.000026   0.000067   0.000070   1.106355E-09
    0   15  -0.000018  -0.000020   0.000140   2.230315E-09
    0   16  -0.031611  -0.025836  -0.017896   0.0002199822
    0   17  -0.031152   0.022876   0.022067   0.0002192803
    0   18   0.003652  -0.028068   0.034253   0.0002185897
 --------------------------------------------------------------------------------

                Transition Moments Between Singlet Excited States
 --------------------------------------------------------------------------------
    States   X          Y          Z           Strength(a.u.)
 --------------------------------------------------------------------------------
   10   11  -0.161232   0.010468   0.153418   6.209245E-09
   10   12  -0.015626   0.138600  -0.110858   6.067806E-08
   10   13  -0.025704  -0.008176   0.006970   1.633946E-06
   10   14  -0.005218   0.010101   0.023090   1.394923E-06
   10   15   0.010631   0.012557   0.013138   9.337803E-07
   10   16  -0.001826   0.018172  -0.013601   1.291511E-06
   10   17   0.006740   0.005113  -0.028502   2.202285E-06
   10   18   0.034589  -0.012323   0.012115   3.725029E-06
   11   12   0.150552   0.104861  -0.050823   6.474861E-08
   11   13   0.002452   0.022117  -0.003262   1.064831E-06
   11   14  -0.021072   0.009532  -0.017322   1.758092E-06
   11   15   0.013726   0.018210   0.005434    1.15751E-06
   11   16   0.020639   0.012841  -0.007569   1.614282E-06
   11   17  -0.019014   0.032129   0.016148   4.122164E-06
   11   18   0.013794   0.014118  -0.014158   1.470044E-06
   12   13   0.015086  -0.019208  -0.000551   1.255436E-06
   12   14  -0.013578   0.011836   0.008341   8.290057E-07
   12   15   0.005311   0.011485  -0.026917   1.861784E-06
   12   16   0.016955   0.021507   0.031328   4.309283E-06
   12   17  -0.017951  -0.003391   0.000633   8.318578E-07
   12   18  -0.007052  -0.022634   0.015543   2.000741E-06
   13   14  -0.217595  -0.142152  -0.070682   3.951609E-08
   13   15   0.169666  -0.223157   0.004332     9.1108E-08
   13   16  -0.151416   0.179740   0.008081   2.131203E-05
   13   17   0.128579   0.232562  -0.059901   2.866143E-05
   13   18  -0.212384   0.023045   0.042819   1.834077E-05
   14   15  -0.017061   0.069516  -0.094209   8.600914E-09
   14   16   0.134645  -0.114409  -0.073218   1.407781E-05
   14   17  -0.153718   0.034849  -0.251363   3.395205E-05
   14   18  -0.140307   0.132900   0.124319   2.037217E-05
   15   16  -0.053341  -0.115039   0.263782   3.291406E-05
   15   17   0.072543   0.099582  -0.000960    5.84555E-06
   15   18   0.151239   0.187133   0.137298   2.956088E-05
   16   17   0.083924   0.013206  -0.007331   6.141668E-09
   16   18   0.033419   0.098852  -0.067362   1.472115E-08
   17   18  -0.013346   0.084456  -0.082867   1.554821E-09
 --------------------------------------------------------------------------------

                    END OF TRANSITION MOMENT CALCULATION

 STSman time:  CPU 260.14 s  wall 261.87 s

 
 --------------------------------------------------------------
 
                    Orbital Energies (a.u.)
 --------------------------------------------------------------
 
 Alpha MOs
 -- Occupied --
-66.1201 -66.1192 -66.1192 -66.1191 -66.1191 -66.1136 -66.1136 -66.1136
-66.1136 -66.1136 -66.1136 -66.1136 -66.1136 -66.1136 -66.1136 -66.1136
-66.1136 -66.1109 -66.1109 -66.1109 -66.1109 -66.1109 -66.1109 -66.1109
-66.1109 -66.1109 -66.1109 -66.1109 -66.1109  -5.2828  -5.2819  -5.2819
 -5.2818  -5.2818  -5.2773  -5.2773  -5.2773  -5.2773  -5.2773  -5.2773
 -5.2773  -5.2773  -5.2773  -5.2773  -5.2773  -5.2773  -5.2751  -5.2751
 -5.2751  -5.2751  -5.2751  -5.2751  -5.2751  -5.2751  -5.2751  -5.2751
 -5.2751  -5.2751  -3.6404  -3.6404  -3.6404  -3.6395  -3.6394  -3.6394
 -3.6394  -3.6394  -3.6394  -3.6394  -3.6394  -3.6394  -3.6394  -3.6394
 -3.6394  -3.6351  -3.6351  -3.6351  -3.6351  -3.6351  -3.6351  -3.6351
 -3.6351  -3.6351  -3.6351  -3.6351  -3.6351  -3.6350  -3.6350  -3.6350
 -3.6350  -3.6350  -3.6350  -3.6350  -3.6350  -3.6350  -3.6350  -3.6350
 -3.6350  -3.6346  -3.6346  -3.6346  -3.6346  -3.6346  -3.6346  -3.6346
 -3.6346  -3.6346  -3.6346  -3.6346  -3.6346  -3.6330  -3.6330  -3.6330
 -3.6330  -3.6330  -3.6330  -3.6330  -3.6330  -3.6330  -3.6330  -3.6330
 -3.6330  -3.6326  -3.6326  -3.6326  -3.6326  -3.6326  -3.6326  -3.6326
 -3.6326  -3.6326  -3.6326  -3.6326  -3.6326  -3.6324  -3.6324  -3.6324
 -3.6324  -3.6324  -3.6324  -3.6324  -3.6324  -3.6324  -3.6324  -3.6324
 -3.6324  -0.6292  -0.6036  -0.6036  -0.6036  -0.5778  -0.5778  -0.5778
 -0.5651  -0.5616  -0.5616  -0.5533  -0.5533  -0.5533  -0.5242  -0.5242
 -0.5242  -0.4880  -0.4880  -0.4855  -0.4855  -0.4855  -0.4768  -0.4653
 -0.4653  -0.4653  -0.4366  -0.4366  -0.4366  -0.4004  -0.3846  -0.3846
 -0.3846  -0.3762  -0.3716  -0.3716  -0.3702  -0.3702  -0.3702  -0.3590
 -0.3510  -0.3510  -0.3510  -0.3491  -0.3491  -0.3435  -0.3435  -0.3435
 -0.3347  -0.3347  -0.3347  -0.3341  -0.3341  -0.3341  -0.3074  -0.3074
 -0.3074  -0.2969  -0.2969  -0.2969  -0.2930  -0.2930  -0.2883  -0.2883
 -0.2883  -0.2753  -0.2753  -0.2753  -0.2721  -0.2721  -0.2657  -0.2605
 -0.2605  -0.2605  -0.2544  -0.2544  -0.2544
 -- Virtual --
 -0.0692  -0.0640  -0.0640  -0.0596  -0.0596  -0.0596  -0.0518  -0.0419
 -0.0419  -0.0418  -0.0392  -0.0367  -0.0367  -0.0367  -0.0328  -0.0328
 -0.0328  -0.0200  -0.0200  -0.0196  -0.0196  -0.0196  -0.0092  -0.0092
 -0.0092   0.0005   0.0005   0.0005   0.0045   0.0045   0.0061   0.0068
  0.0068   0.0068   0.0178   0.0178   0.0178   0.0216   0.0216   0.0216
  0.0265   0.0341   0.0341   0.0341   0.0389   0.0389   0.0389   0.0428
  0.0428   0.0528   0.0528   0.0528   0.0615   0.0647   0.0647   0.0660
  0.0660   0.0660   0.0665   0.0665   0.0665   0.0797   0.0797   0.0884
  0.0884   0.0884   0.0896   0.0896   0.0896   0.0952   0.1026   0.1026
  0.1026   0.1082   0.1082   0.1082   0.1170   0.1170   0.1181   0.1181
  0.1181   0.1217   0.1217   0.1222   0.1222   0.1222   0.1295   0.1295
  0.1295   0.1329   0.1329   0.1329   0.1349   0.1466   0.1466   0.1466
  0.1485   0.1485   0.1553   0.1659   0.1659   0.1659   0.1696   0.1776
  0.1776   0.1776   0.1805   0.1805   0.1805   0.1828   0.1828   0.1828
  0.1916   0.1926   0.1926   0.1941   0.1941   0.1941   0.2036   0.2036
  0.2036   0.2157   0.2157   0.2157   0.2186   0.2186   0.2197   0.2316
  0.2376   0.2376   0.2376   0.2398   0.2398   0.2398   0.2488   0.2488
  0.2488   0.2536   0.2536   0.2598   0.2598   0.2598   0.2639   0.2639
  0.2641   0.2641   0.2641   0.2655   0.2655   0.2655   0.2703   0.2726
  0.2726   0.2726   0.2796   0.2796   0.2796   0.2834   0.2834   0.2834
  0.2908   0.2948   0.3021   0.3101   0.3101   0.3131   0.3131   0.3131
  0.3163   0.3163   0.3163   0.3175   0.3176   0.3176   0.3191   0.3191
  0.3258   0.3258   0.3258   0.3260   0.3260   0.3260   0.3465   0.3465
  0.3472   0.3472   0.3472   0.3517   0.3517   0.3517   0.3528   0.3635
  0.3635   0.3635   0.3661   0.3661   0.3661   0.3762   0.3762   0.3762
  0.3834   0.3834   0.3834   0.3876   0.3876   0.3876   0.3923   0.3928
  0.3928   0.4038   0.4038   0.4038   0.4064   0.4064   0.4064   0.4123
  0.4123   0.4186   0.4201   0.4201   0.4201   0.4208   0.4225   0.4225
  0.4243   0.4243   0.4243   0.4249   0.4249   0.4249   0.4358   0.4358
  0.4358   0.4364   0.4471   0.4471   0.4471   0.4481   0.4481   0.4544
  0.4544   0.4544   0.4600   0.4600   0.4600   0.4636   0.4636   0.4636
  0.4689   0.4689   0.4689   0.4721   0.4721   0.4780   0.4780   0.4780
  0.4797   0.4842   0.4842   0.4842   0.4926   0.4950   0.4950   0.5058
  0.5058   0.5058   0.5168   0.5179   0.5179   0.5179   0.5202   0.5202
  0.5202   0.5279   0.5279   0.5296   0.5363   0.5363   0.5363   0.5452
  0.5452   0.5452   0.5482   0.5482   0.5482   0.5587   0.5587   0.5606
  0.5606   0.5606   0.5670   0.5692   0.5692   0.5692   0.5786   0.5787
  0.5787   0.5909   0.5909   0.5909   0.5942   0.5942   0.5961   0.5961
  0.5961   0.5969   0.5984   0.5984   0.5984   0.6071   0.6071   0.6071
  0.6163   0.6163   0.6255   0.6255   0.6384   0.6384   0.6384   0.6415
  0.6415   0.6415   0.6534   0.6534   0.6534   0.6539   0.6539   0.6539
  0.6589   0.6599   0.6696   0.6696   0.6696   0.6716   0.6716   0.6740
  0.6740   0.6740   0.6906   0.7015   0.7015   0.7015   0.7032   0.7032
  0.7106   0.7106   0.7106   0.7176   0.7176   0.7176   0.7258   0.7258
  0.7258   0.7274   0.7274   0.7340   0.7404   0.7404   0.7404   0.7555
  0.7555   0.7599   0.7599   0.7599   0.7607   0.7607   0.7607   0.7643
  0.7643   0.7643   0.7930   0.7930   0.7930   0.8313   0.8313   0.8410
  0.8410   0.8410   0.8518   0.8518   0.8518   0.8688   0.8776   0.8776
  0.8776   0.8845   0.8845   0.8845   0.8993   0.8993   0.9205   0.9242
  0.9242   0.9242   0.9246   0.9246   0.9246   0.9261   0.9261   0.9377
  0.9377   0.9377   0.9379   0.9379   0.9379   0.9397   0.9397   0.9397
  0.9536   0.9682   0.9682   0.9682   0.9753   0.9754   0.9754   0.9755
  0.9783   0.9783   0.9783   0.9814   0.9814   0.9865   0.9865   0.9865
  0.9938   0.9938   0.9938   0.9992   1.0013   1.0013   1.0074   1.0074
  1.0074   1.0168   1.0255   1.0266   1.0266   1.0266   1.0293   1.0293
  1.0293   1.0332   1.0332   1.0358   1.0358   1.0369   1.0369   1.0369
  1.0429   1.0429   1.0429   1.0458   1.0458   1.0458   1.0477   1.0477
  1.0477   1.0507   1.0507   1.0507   1.0560   1.0560   1.0560   1.0654
  1.0654   1.0654   1.0672   1.0673   1.0673   1.0699   1.0699   1.0699
  1.0755   1.0755   1.0755   1.0762   1.0762   1.0805   1.0805   1.0805
  1.0824   1.0874   1.0875   1.0875   1.0884   1.0884   1.0884   1.0907
  1.0907   1.0950   1.0993   1.0993   1.0993   1.1028   1.1028   1.1135
  1.1135   1.1135   1.1206   1.1206   1.1206   1.1224   1.1257   1.1257
  1.1257   1.1434   1.1434   1.1434   1.1440   1.1531   1.1531   1.1607
  1.1607   1.1607   1.1609   1.1609   1.1641   1.1641   1.1641   1.1664
  1.1788   1.1788   1.1788   1.1852   1.1852   1.1852   1.1916   1.1916
  1.1916   1.1992   1.1992   1.1992   1.2052   1.2052   1.2068   1.2068
  1.2068   1.2199   1.2224   1.2224   1.2224   1.2250   1.2250   1.2250
  1.2278   1.2278   1.2341   1.2341   1.2376   1.2376   1.2377   1.2397
  1.2397   1.2397   1.2569   1.2569   1.2569   1.2642   1.2667   1.2667
  1.2667   1.2694   1.2698   1.2698   1.2699   1.2770   1.2770   1.2770
  1.2870   1.2870   1.2870   1.2898   1.3008   1.3008   1.3008   1.3032
  1.3033   1.3033   1.3111   1.3111   1.3163   1.3247   1.3247   1.3247
  1.3340   1.3340   1.3340   1.3352   1.3352   1.3386   1.3386   1.3386
  1.3522   1.3522   1.3522   1.3587   1.3587   1.3621   1.3622   1.3622
  1.3660   1.3725   1.3805   1.3805   1.3805   1.3911   1.3911   1.3911
  1.3930   1.3930   1.3930   1.4021   1.4021   1.4343   1.4343   1.4438
  1.4438   1.4438   1.4576   1.4679   1.4679   1.4679   1.4742   1.4742
  1.4742   1.4840   1.4840   1.4840   1.4871   1.4875   1.4875   1.4885
  1.4885   1.4885   1.5055   1.5055   1.5055   1.5152   1.5152   1.5152
  1.5185   1.5185   1.5185   1.5259   1.5260   1.5318   1.5402   1.5402
  1.5402   1.5604   1.5604   1.5604   1.5616   1.5616   1.5616   1.5621
  1.5621   1.5679   1.5679   1.5679   1.5691   1.5691   1.5691   1.5919
  1.5939   1.5970   1.5970   1.5970   1.6038   1.6039   1.6075   1.6075
  1.6075   1.6110   1.6167   1.6167   1.6168   1.6212   1.6218   1.6218
  1.6218   1.6288   1.6288   1.6384   1.6385   1.6385   1.6641   1.6641
  1.6641   1.6655   1.6655   1.6655   1.6724   1.6726   1.6752   1.6752
  1.6752   1.6778   1.6778   1.6813   1.6813   1.6813   1.6854   1.6854
  1.6854   1.6863   1.6863   1.6863   1.6950   1.6950   1.7058   1.7058
  1.7058   1.7154   1.7155   1.7155   1.7179   1.7179   1.7179   1.7203
  1.7221   1.7221   1.7229   1.7277   1.7277   1.7277   1.7374   1.7509
  1.7509   1.7509   1.7687   1.7687   1.7687   1.7784   1.7784   1.7784
  1.7850   1.7851   1.7906   1.7906   1.7956   1.7956   1.7956   1.8029
  1.8029   1.8029   1.8081   1.8081   1.8081   1.8205   1.8302   1.8302
  1.8302   1.8346   1.8346   1.8347   1.8401   1.8401   1.8575   1.8576
  1.8576   1.8629   1.8629   1.8629   1.8721   1.8721   1.8891   1.8891
  1.8891   1.8907   1.8907   1.8907   1.8948   1.8948   1.8957   1.9190
  1.9190   1.9190   1.9195   1.9195   1.9195   1.9251   1.9270   1.9270
  1.9290   1.9290   1.9290   1.9322   1.9441   1.9441   1.9441   1.9513
  1.9513   1.9513   1.9623   1.9623   1.9724   1.9724   1.9724   1.9755
  1.9755   1.9755   1.9785   1.9785   1.9785   1.9802   1.9802   1.9802
  1.9933   1.9943   1.9999   1.9999   2.0000   2.0069   2.0069   2.0069
  2.0091   2.0091   2.0091   2.0131   2.0131   2.0170   2.0170   2.0332
  2.0332   2.0332   2.0398   2.0398   2.0399   2.0430   2.0430   2.0430
  2.0549   2.0549   2.0582   2.0587   2.0587   2.0587   2.0597   2.0597
  2.0597   2.0708   2.0708   2.0708   2.0771   2.0772   2.0844   2.0844
  2.0844   2.0868   2.0868   2.0868   2.0898   2.0898   2.0898   2.0900
  2.1236   2.1236   2.1242   2.1242   2.1242   2.1373   2.1373   2.1373
  2.1677   2.1683   2.1683   2.1683   2.1733   2.1733   2.1733   2.1867
  2.2003   2.2003   2.2560   2.2560   2.2560   2.2980   2.3014   2.3014
  2.3014   2.3228   2.3228   2.3228   2.3307   2.3307   2.3307   2.3318
  2.3318   2.3456   2.3456   2.3456   2.3686   2.3701   2.3702   2.3759
  2.3760   2.3760   2.3839   2.3840   2.3840   2.3874   2.3927   2.3927
  2.3928   2.4089   2.4089   2.4090   2.4143   2.4143   2.4143   2.4270
  2.4270   2.4434   2.4434   2.4434   2.6737   2.7881   2.7881   2.7881
  2.8031   2.8403   2.8403   2.8403   2.8404   2.8404   2.8735   2.8735
  2.8786   2.8857   2.8857   2.8857   2.9384   2.9384   2.9384   2.9467
  2.9467   2.9467   2.9686   2.9686   2.9687   2.9699   2.9699   2.9699
  2.9825   2.9825   2.9825   2.9849   2.9849   2.9964   2.9965   2.9965
  6.2193   6.2498   6.2498   6.2618   6.2618   6.2618   6.2657   6.2657
  6.2657   6.2723   6.2723   6.2724   6.2737   6.2755   6.2755   6.2756
  6.2868   6.2868   6.2868   6.2944   6.2945   6.2978   6.2985   6.2985
  6.2985   6.3056   6.3056   6.3056   6.3121   6.3234   6.3235   6.3235
  6.3302   6.3302   6.3424   6.3424   6.3424   6.3576   6.3576   6.3576
  6.4003   6.4003   6.4138   6.4138   6.4138   6.4284   6.4284   6.4284
  6.4358   6.4358   6.4358   6.4433   6.4524   6.4524   6.4524   6.4600
  6.4676   6.4676   6.4706   6.4706   6.4706   6.4794   6.4795   6.4795
  6.5124   6.5124   6.5149   6.5149   6.5149   6.5227   6.5227   6.5227
  6.5474   6.5474   6.5547   6.5547   6.5547   6.5566   6.5566   6.5567
  6.5649   6.5649   6.5650   6.6025   6.6268   6.6268   6.6268  10.0942
 10.2445  10.2445  10.2446  10.3325  10.4122  10.4443  10.4443  10.4443
 10.5264  10.5264  10.5265  10.5715  10.5715  10.5875  10.5875  10.5875
 10.6113  10.6113  10.6113  10.6277  10.6434  10.6434  10.6890  10.6890
 10.6890  10.7071  10.7071  10.7071
 --------------------------------------------------------------
 
          Ground-State Mulliken Net Atomic Charges

     Atom                 Charge (a.u.)
  ----------------------------------------
      1 Si                    0.041822
      2 Si                    0.041794
      3 Si                    0.041786
      4 Si                    0.035013
      5 Si                   -0.020032
      6 Si                    0.035012
      7 Si                   -0.020038
      8 Si                    0.035021
      9 Si                    0.035034
     10 Si                    0.041776
     11 Si                    0.041791
     12 Si                    0.041809
     13 Si                    0.035019
     14 Si                   -0.020037
     15 Si                    0.035029
     16 Si                    0.035012
     17 Si                    0.041805
     18 Si                    0.041813
     19 Si                    0.041774
     20 Si                    0.035027
     21 Si                    0.035012
     22 Si                    0.041821
     23 Si                    0.041791
     24 Si                    0.041813
     25 Si                    0.216748
     26 Si                    0.035013
     27 Si                    0.035028
     28 Si                    0.035026
     29 Si                   -0.020027
     30 H                    -0.024425
     31 H                    -0.030135
     32 H                    -0.030134
     33 H                    -0.024408
     34 H                    -0.024395
     35 H                    -0.030135
     36 H                    -0.033670
     37 H                    -0.033666
     38 H                    -0.033648
     39 H                    -0.033647
     40 H                    -0.024393
     41 H                    -0.030140
     42 H                    -0.024416
     43 H                    -0.030146
     44 H                    -0.030141
     45 H                    -0.024415
     46 H                    -0.033663
     47 H                    -0.033648
     48 H                    -0.033647
     49 H                    -0.030142
     50 H                    -0.024412
     51 H                    -0.030145
     52 H                    -0.024415
     53 H                    -0.024405
     54 H                    -0.030135
     55 H                    -0.033649
     56 H                    -0.033649
     57 H                    -0.030146
     58 H                    -0.024428
     59 H                    -0.024408
     60 H                    -0.030137
     61 H                    -0.030139
     62 H                    -0.024407
     63 H                    -0.033655
     64 H                    -0.033657
     65 H                    -0.033655
  ----------------------------------------
  Sum of atomic charges =     0.000000

 -----------------------------------------------------------------
                    Cartesian Multipole Moments
 -----------------------------------------------------------------
    Charge (ESU x 10^10)
                 0.0000
    Dipole Moment (Debye)
         X       0.0003      Y      -0.0001      Z      -0.0006
       Tot       0.0007
    Quadrupole Moments (Debye-Ang)
        XX    -414.8019     XY       0.0002     YY    -414.8036
        XZ      -0.0006     YZ      -0.0012     ZZ    -414.8045
    Octopole Moments (Debye-Ang^2)
       XXX      -0.0003    XXY       0.0043    XYY      -0.0016
       YYY       0.0124    XXZ      -0.0006    XYZ      14.6853
       YYZ      -0.0018    XZZ      -0.0045    YZZ      -0.0086
       ZZZ       0.0156
    Hexadecapole Moments (Debye-Ang^3)
      XXXX  -14765.7930   XXXY      -0.0378   XXYY   -4934.9471
      XYYY      -0.0571   YYYY  -14765.8991   XXXZ      -0.0736
      XXYZ       0.0031   XYYZ       0.0023   YYYZ      -0.0221
      XXZZ   -4934.9897   XYZZ       0.0186   YYZZ   -4935.0184
      XZZZ      -0.0215   YZZZ      -0.0244   ZZZZ  -14766.0929
 -----------------------------------------------------------------
Archival summary:
1\1\node313.hydra.os\SP\ProcedureUnspecified\BasisUnspecified\i2936\niacobel\SunOct603:31:372019SunOct603:31:372019\0\\#,ProcedureUnspecified,BasisUnspecified,\\0,1\Si\Si,1,2.3839\Si,2,2.38351,1,108.928\H,3,1.49111,2,108.55,1,179.999,0\Si,3,2.36495,2,112.93,1,-58.207,0\H,5,1.48117,3,112.657,2,-71.3041,0\H,5,1.48879,3,107.425,2,170.799,0\H,6,2.22475,5,132.027,3,61.9755,0\Si,8,1.48117,6,132.018,5,0.0371969,0\H,9,1.48879,8,107.254,6,179.975,0\Si,5,2.36497,3,109.135,2,54.6199,0\H,11,1.4911,5,109.639,3,-175.79,0\Si,3,2.36497,2,112.921,1,58.2124,0\H,13,1.48117,3,112.657,2,71.3072,0\H,13,1.48879,3,107.424,2,-170.799,0\H,14,2.22426,13,132.024,3,-62.0099,0\Si,16,1.48117,14,132.028,13,0.00955555,0\H,17,1.48879,16,107.253,14,179.995,0\Si,17,2.36497,16,112.657,14,61.9943,0\H,19,1.49111,17,109.637,16,49.8759,0\Si,19,2.36497,17,103.042,16,166.551,0\H,21,1.48117,19,112.656,17,-166.533,0\H,21,1.48879,19,107.425,17,-48.6366,0\H,22,2.22528,21,132.011,19,-61.9937,0\Si,24,1.48117,22,132.023,21,-0.0116004,0\H,25,1.48879,24,107.256,22,-179.994,0\Si,25,2.36493,24,112.657,22,62.003,0\H,27,1.49111,25,109.639,24,49.8707,0\Si,25,2.36497,24,112.661,22,-61.9891,0\H,29,1.4911,25,109.642,24,-49.8758,0\Si,29,2.36497,25,103.05,24,-166.558,0\H,31,1.48117,29,112.654,25,166.549,0\H,31,1.48879,29,107.428,25,48.6516,0\H,32,2.22469,31,132.042,29,62.0188,0\Si,34,1.48117,32,132.005,31,-0.0301794,0\H,35,1.48879,34,107.256,32,-179.98,0\Si,35,2.36493,34,112.659,32,62.0169,0\H,37,1.49111,35,109.639,34,49.8645,0\Si,37,2.36495,35,103.046,34,166.54,0\H,39,1.48118,37,112.655,35,-166.548,0\H,39,1.48879,37,107.431,35,-48.6469,0\H,40,2.22518,39,132.037,37,-61.9908,0\Si,42,1.48118,40,132.002,39,-0.0048397,0\H,43,1.48879,42,107.254,40,-179.998,0\Si,39,2.36493,37,109.13,35,67.5355,0\H,45,1.49111,39,109.636,37,175.793,0\Si,45,2.36495,39,103.04,37,-67.5333,0\H,47,1.48117,45,112.657,39,-166.539,0\H,47,1.48879,45,107.424,39,-48.6412,0\H,48,2.22496,47,132.017,45,-61.9587,0\Si,50,1.48118,48,132.025,47,-0.0660535,0\H,51,1.48879,50,107.255,48,-179.958,0\Si,47,2.36491,45,109.133,39,67.5406,0\H,53,1.49111,47,109.636,45,175.784,0\Si,31,2.36495,29,109.142,25,-67.5293,0\H,55,1.4911,31,109.64,29,-175.797,0\Si,43,2.36496,42,112.658,40,-61.9991,0\H,57,1.4911,43,109.641,42,-49.8671,0\Si,51,2.36496,50,112.66,48,-61.9576,0\H,59,1.4911,51,109.64,50,-49.876,0\Si,51,2.36498,50,112.653,48,62.0432,0\H,61,1.4911,51,109.641,50,49.8654,0\Si,53,2.38355,47,112.923,45,54.6138,0\Si,45,2.38356,39,112.925,37,54.6248,0\Si,37,2.38357,35,112.928,34,-71.3079,0\\\@

 Total job time:  403265.55s(wall), 381098.77s(cpu) 
 Sun Oct  6 03:31:37 2019

        *************************************************************
        *                                                           *
        *  Thank you very much for using Q-Chem.  Have a nice day.  *
        *                                                           *
        *************************************************************


