Running Q-Chem job 1 of 1 
Check license passed

                  Welcome to Q-Chem
     A Quantum Leap Into The Future Of Chemistry


 Q-Chem 5.1, Q-Chem, Inc., Pleasanton, CA (2018)

 Yihan Shao,  Zhengting Gan,  E. Epifanovsky,  A. T. B. Gilbert,  M. Wormit,  
 J. Kussmann,  A. W. Lange,  A. Behn,  Jia Deng,  Xintian Feng,  D. Ghosh,  
 M. Goldey,  P. R. Horn,  L. D. Jacobson,  I. Kaliman,  T. Kus,  A. Landau,  
 Jie Liu,  E. I. Proynov,  R. M. Richard,  R. P. Steele,  E. J. Sundstrom,  
 H. L. Woodcock III,  P. M. Zimmerman,  D. Zuev,  B. Albrecht,  E. Alguire,  
 S. A. Baeppler,  D. Barton,  Z. Benda,  Y. A. Bernard,  E. J. Berquist,  
 K. B. Bravaya,  H. Burton,  D. Casanova,  Chun-Min Chang,  Yunqing Chen,  
 A. Chien,  K. D. Closser,  M. P. Coons,  S. Coriani,  S. Dasgupta,  
 A. L. Dempwolff,  M. Diedenhofen,  Hainam Do,  R. G. Edgar,  Po-Tung Fang,  
 S. Faraji,  S. Fatehi,  Qingguo Feng,  K. D. Fenk,  J. Fosso-Tande,  
 Qinghui Ge,  A. Ghysels,  G. Gidofalvi,  J. Gomes,  J. Gonthier,  A. Gunina,  
 D. Hait,  M. W. D. Hanson-Heine,  P. H. P. Harbach,  A. W. Hauser,  
 J. E. Herr,  E. G. Hohenstein,  Z. C. Holden,  Kerwin Hui,  B. C. Huynh,  
 T.-C. Jagau,  Hyunjun Ji,  B. Kaduk,  K. Khistyaev,  Jaehoon Kim,  
 P. Klunzinger,  K. Koh,  D. Kosenkov,  L. Koulias,  T. Kowalczyk,  
 C. M. Krauter,  A. Kunitsa,  Ka Un Lao,  A. Laurent,  K. V. Lawler,  
 Joonho Lee,  D. Lefrancois,  S. Lehtola,  D. S. Levine,  Yi-Pei Li,  
 You-Sheng Lin,  Fenglai Liu,  E. Livshits,  A. Luenser,  P. Manohar,  
 E. Mansoor,  S. F. Manzer,  Shan-Ping Mao,  Yuezhi Mao,  N. Mardirossian,  
 A. V. Marenich,  T. Markovich,  L. A. Martinez-Martinez,  S. A. Maurer,  
 N. J. Mayhall,  S. C. McKenzie,  J.-M. Mewes,  A. F. Morrison,  
 J. W. Mullinax,  K. Nanda,  T. S. Nguyen-Beck,  R. Olivares-Amaya,  
 J. A. Parkhill,  T. M. Perrine,  F. Plasser,  P. Pokhilko,  S. Prager,  
 A. Prociuk,  E. Ramos,  D. R. Rehn,  F. Rob,  M. Schneider,  N. Sergueev,  
 S. M. Sharada,  S. Sharma,  D. W. Small,  T. Stauch,  T. Stein,  
 Yu-Chuan Su,  A. J. W. Thom,  A. Tkatchenko,  T. Tsuchimochi,  N. M. Tubman,  
 L. Vogt,  M. L. Vidal,  O. Vydrov,  M. A. Watson,  J. Wenzel,  
 M. de Wergifosse,  T. A. Wesolowski,  A. White,  J. Witte,  A. Yamada,  
 Jun Yang,  K. Yao,  S. Yeganeh,  S. R. Yost,  Zhi-Qiang You,  A. Zech,  
 Igor Ying Zhang,  Xing Zhang,  Yan Zhao,  Ying Zhu,  B. R. Brooks,  
 G. K. L. Chan,  C. J. Cramer,  M. S. Gordon,  W. J. Hehre,  A. Klamt,  
 M. W. Schmidt,  C. D. Sherrill,  D. G. Truhlar,  A. Aspuru-Guzik,  R. Baer,  
 A. T. Bell,  N. A. Besley,  Jeng-Da Chai,  A. E. DePrince, III,  
 R. A. DiStasio Jr.,  A. Dreuw,  B. D. Dunietz,  T. R. Furlani,  
 Chao-Ping Hsu,  Yousung Jung,  Jing Kong,  D. S. Lambrecht,  WanZhen Liang,  
 C. Ochsenfeld,  V. A. Rassolov,  L. V. Slipchenko,  J. E. Subotnik,  
 T. Van Voorhis,  J. M. Herbert,  A. I. Krylov,  P. M. W. Gill,  M. Head-Gordon

 Contributors to earlier versions of Q-Chem not listed above: 
 R. D. Adamson,  B. Austin,  J. Baker,  G. J. O. Beran,  K. Brandhorst,  
 S. T. Brown,  E. F. C. Byrd,  A. K. Chakraborty,  C.-L. Cheng,  
 Siu Hung Chien,  D. M. Chipman,  D. L. Crittenden,  H. Dachsel,  
 R. J. Doerksen,  A. D. Dutoi,  L. Fusti-Molnar,  W. A. Goddard III,  
 A. Golubeva-Zadorozhnaya,  S. R. Gwaltney,  G. Hawkins,  A. Heyden,  
 S. Hirata,  G. Kedziora,  F. J. Keil,  C. Kelley,  Jihan Kim,  R. A. King,  
 R. Z. Khaliullin,  P. P. Korambath,  W. Kurlancheek,  A. M. Lee,  M. S. Lee,  
 S. V. Levchenko,  Ching Yeh Lin,  D. Liotard,  R. C. Lochan,  I. Lotan,  
 P. E. Maslen,  N. Nair,  D. P. O'Neill,  D. Neuhauser,  E. Neuscamman,  
 C. M. Oana,  R. Olson,  B. Peters,  R. Peverati,  P. A. Pieniazek,  
 Y. M. Rhee,  J. Ritchie,  M. A. Rohrdanz,  E. Rosta,  N. J. Russ,  
 H. F. Schaefer III,  N. E. Schultz,  N. Shenvi,  A. C. Simmonett,  A. Sodt,  
 D. Stuck,  K. S. Thanthiriwatte,  V. Vanovschi,  Tao Wang,  A. Warshel,  
 C. F. Williams,  Q. Wu,  X. Xu,  W. Zhang

 Please cite Q-Chem as follows:
 Y. Shao et al., Mol. Phys. 113, 184-215 (2015)
 DOI: 10.1080/00268976.2014.952696

 Q-Chem 5.1.1 for Intel X86 EM64T Linux

 Parts of Q-Chem use Armadillo 8.300.2 (Tropical Shenanigans).
 http://arma.sourceforge.net/

 Q-Chem begins on Thu Apr  4 21:23:45 2019  

Host: 127

     Scratch files written to D:/QChem/Temp/qchem5632//
 Aug318 |cygdrive|d|Jenkins|workspace|build_RNUM -1
Input Ideriv = 2
Curr. Ideriv = -1
Max.  Ideriv = 2

Checking the input file for inconsistencies... 	...done.

--------------------------------------------------------------
User input:
--------------------------------------------------------------

$molecule
   0 1
  Si  -4.13843274279373     -1.52368399575963     -1.46103301803504
  Si  -1.49194328027506     -4.12716154981670     -1.49226646817110
  Si  -1.46085134904172     -1.52400707002548     -4.13905497858875
  Si  -2.75384127359370     -2.77886191981018     -0.01253581406557
  Si  -1.39407781618095     -1.42322513092244      1.39425203597956
  Ge  -2.77095918068827     -0.02478848739634     -2.77167022690740
  Si  -1.39387457714301      1.42337494273536     -1.39397415976742
  Si  -2.75434155794129      2.77870108690652      0.01236011611949
  Ge  -2.77168053153168      0.02530407383390      2.77160599178525
  Si  -4.13918267710878      1.52361264968086      1.46061346558884
  Si  -1.46082595274683      1.52399089833679      4.13874449676396
  Si  -1.49238842039924      4.12699743548206      1.49206079761528
  Si  -0.01233684367629     -2.77895737266394     -2.75436784260183
  Si  1.39440946786148     -1.42349691229674     -1.39442560007681
  Si  2.75406620323706     -2.77918788597275      0.01234682263733
  Si  0.01233045357382     -2.77865320494054      2.75453686287492
  Si  1.49177691187064     -4.12699183684570      1.49228091748038
  Si  1.46087247516470     -1.52352378362731      4.13914287933709
  Si  4.13880942076561     -1.52391378000357      1.46053018007065
  Si  0.01251757902854      2.77925188448766     -2.75376818623567
  Ge  2.77173022193537      0.02533704586647     -2.77171979720805
  Si  1.46046529394849      1.52394751109049     -4.13870659890291
  Si  1.49221891739795      4.12723243267782     -1.49152090540237
  Si  4.13914532327722      1.52375371247628     -1.46082641890255
  Ge  0.00053170617451     -0.00010079132793      0.00003108116400
  Si  2.75459940718264      2.77882156525079     -0.01232260366631
  Si  -0.01239804117185      2.77893613115948      2.75392261026090
  Ge  2.77179854105238     -0.02510330679736      2.77155504478382
  Si  1.39452217092696      1.42335076879664      1.39418576195692
  H   -5.22673953214155     -0.81594706833294     -0.74898253650315
  H   -4.77455168432976     -2.48005091533037     -2.40754084635678
  H   -2.44742677761666     -4.75287530166772     -2.44748476209858
  H   -0.78951989517219     -5.22592395748090     -0.78983992264541
  H   -0.74913233154333     -0.81679924578135     -5.22790210205163
  H   -2.40782257935763     -2.48047050579413     -4.77434798404812
  H   -3.60043032308166     -3.65312293642845      0.84982582343914
  H   -3.67633221991904      0.84873330972945     -3.67679520110461
  H   -3.60074383034034      3.65287589217108     -0.85026428707832
  H   -3.67678969687190     -0.84832030620435      3.67690364681149
  H   -5.22720370528151      0.81544196635397      0.74856691139030
  H   -4.77561072907051      2.48000191626843      2.40688714437841
  H   -0.74881952628146      0.81618467254851      5.22701719710028
  H   -2.40723161644391      2.48047157477660      4.77483909583701
  H   -2.44772374436277      4.75261481049141      2.44748896735007
  H   -0.79015148585352      5.22579964263912      0.78951665479599
  H   0.85000559358599     -3.65336649021143     -3.60080393767299
  H   3.60046123106927     -3.65379606729360     -0.84984090671786
  H   -0.85010833818256     -3.65287873710219      3.60107511571520
  H   2.44705245567120     -4.75305323785427      2.44747482475179
  H   0.78891213995618     -5.22553017217162      0.78993531302163
  H   2.40732528450143     -2.47989924748753      4.77531972502989
  H   0.74888263979047     -0.81558810409370      5.22734620284110
  H   5.22691143151574     -0.81608689841843      0.74827084006921
  H   4.77508740192627     -2.48028968126658      2.40691759674788
  H   -0.85000824317322      3.65355755146727     -3.60013392240574
  H   3.67674411470940     -0.84811362883428     -3.67726491778198
  H   2.40661890173490      2.48012719596781     -4.77560431297626
  H   0.74781772897303      0.81579700604781     -5.22635319344464
  H   0.78957724086701      5.22549127020686     -0.78852482386353
  H   2.44724345206874      4.75358198656470     -2.44677041422233
  H   4.77535244378419      2.48018740496359     -2.40719682070990
  H   5.22726560596264      0.81567056134337     -0.74885762841711
  H   3.60116888034556      3.65300695595599      0.85011470597199
  H   0.84992387672023      3.65333715352861      3.60039189685475
  H   3.67733598673631      0.84827652015470      3.67664041210619
$end

$rem
   JOBTYPE              sp
   EXCHANGE             b3lyp
   BASIS                def2-tzvp
   CIS_N_ROOTS          4
   CIS_CONVERGENCE      8
   CORRELATION          none
   MAX_SCF_CYCLES       600
   MAX_CIS_CYCLES       50
   SCF_ALGORITHM        diis
   MEM_STATIC           1200
   MEM_TOTAL            8000
   SYMMETRY             false
   SYM_IGNORE           true
   UNRESTRICTED         false
   CIS_SINGLETS         true
   CIS_TRIPLETS         true
   CALC_SOC             true
   SET_ITER             300
   STS_MOM              true
$end
--------------------------------------------------------------
 ----------------------------------------------------------------
             Standard Nuclear Orientation (Angstroms)
    I     Atom           X                Y                Z
 ----------------------------------------------------------------
    1      Si     -4.1384327428    -1.5236839958    -1.4610330180
    2      Si     -1.4919432803    -4.1271615498    -1.4922664682
    3      Si     -1.4608513490    -1.5240070700    -4.1390549786
    4      Si     -2.7538412736    -2.7788619198    -0.0125358141
    5      Si     -1.3940778162    -1.4232251309     1.3942520360
    6      Ge     -2.7709591807    -0.0247884874    -2.7716702269
    7      Si     -1.3938745771     1.4233749427    -1.3939741598
    8      Si     -2.7543415579     2.7787010869     0.0123601161
    9      Ge     -2.7716805315     0.0253040738     2.7716059918
   10      Si     -4.1391826771     1.5236126497     1.4606134656
   11      Si     -1.4608259527     1.5239908983     4.1387444968
   12      Si     -1.4923884204     4.1269974355     1.4920607976
   13      Si     -0.0123368437    -2.7789573727    -2.7543678426
   14      Si      1.3944094679    -1.4234969123    -1.3944256001
   15      Si      2.7540662032    -2.7791878860     0.0123468226
   16      Si      0.0123304536    -2.7786532049     2.7545368629
   17      Si      1.4917769119    -4.1269918368     1.4922809175
   18      Si      1.4608724752    -1.5235237836     4.1391428793
   19      Si      4.1388094208    -1.5239137800     1.4605301801
   20      Si      0.0125175790     2.7792518845    -2.7537681862
   21      Ge      2.7717302219     0.0253370459    -2.7717197972
   22      Si      1.4604652939     1.5239475111    -4.1387065989
   23      Si      1.4922189174     4.1272324327    -1.4915209054
   24      Si      4.1391453233     1.5237537125    -1.4608264189
   25      Ge      0.0005317062    -0.0001007913     0.0000310812
   26      Si      2.7545994072     2.7788215653    -0.0123226037
   27      Si     -0.0123980412     2.7789361312     2.7539226103
   28      Ge      2.7717985411    -0.0251033068     2.7715550448
   29      Si      1.3945221709     1.4233507688     1.3941857620
   30      H      -5.2267395321    -0.8159470683    -0.7489825365
   31      H      -4.7745516843    -2.4800509153    -2.4075408464
   32      H      -2.4474267776    -4.7528753017    -2.4474847621
   33      H      -0.7895198952    -5.2259239575    -0.7898399226
   34      H      -0.7491323315    -0.8167992458    -5.2279021021
   35      H      -2.4078225794    -2.4804705058    -4.7743479840
   36      H      -3.6004303231    -3.6531229364     0.8498258234
   37      H      -3.6763322199     0.8487333097    -3.6767952011
   38      H      -3.6007438303     3.6528758922    -0.8502642871
   39      H      -3.6767896969    -0.8483203062     3.6769036468
   40      H      -5.2272037053     0.8154419664     0.7485669114
   41      H      -4.7756107291     2.4800019163     2.4068871444
   42      H      -0.7488195263     0.8161846725     5.2270171971
   43      H      -2.4072316164     2.4804715748     4.7748390958
   44      H      -2.4477237444     4.7526148105     2.4474889674
   45      H      -0.7901514859     5.2257996426     0.7895166548
   46      H       0.8500055936    -3.6533664902    -3.6008039377
   47      H       3.6004612311    -3.6537960673    -0.8498409067
   48      H      -0.8501083382    -3.6528787371     3.6010751157
   49      H       2.4470524557    -4.7530532379     2.4474748248
   50      H       0.7889121400    -5.2255301722     0.7899353130
   51      H       2.4073252845    -2.4798992475     4.7753197250
   52      H       0.7488826398    -0.8155881041     5.2273462028
   53      H       5.2269114315    -0.8160868984     0.7482708401
   54      H       4.7750874019    -2.4802896813     2.4069175967
   55      H      -0.8500082432     3.6535575515    -3.6001339224
   56      H       3.6767441147    -0.8481136288    -3.6772649178
   57      H       2.4066189017     2.4801271960    -4.7756043130
   58      H       0.7478177290     0.8157970060    -5.2263531934
   59      H       0.7895772409     5.2254912702    -0.7885248239
   60      H       2.4472434521     4.7535819866    -2.4467704142
   61      H       4.7753524438     2.4801874050    -2.4071968207
   62      H       5.2272656060     0.8156705613    -0.7488576284
   63      H       3.6011688803     3.6530069560     0.8501147060
   64      H       0.8499238767     3.6533371535     3.6003918969
   65      H       3.6773359867     0.8482765202     3.6766404121
 ----------------------------------------------------------------
 Nuclear Repulsion Energy = 14950.9230654664 hartrees
 There are      266 alpha and      266 beta electrons
 Requested basis set is def2-TZVP
 There are 536 shells and 1344 basis functions

 Total QAlloc Memory Limit   8000 MB
 Mega-Array Size      1174 MB
 MEM_STATIC part      1200 MB
 Smallest overlap matrix eigenvalue = 2.74E-04

 Scale SEOQF with 1.000000e-02/1.000000e-01/1.000000e-02

 Standard Electronic Orientation quadrupole field applied
 Nucleus-field energy     =     0.0000001606 hartrees
 Guess from superposition of atomic densities
 Warning:  Energy on first SCF cycle will be non-variational
 SAD guess density has 531.999998 electrons

 -----------------------------------------------------------------------
  General SCF calculation program by
  Eric Jon Sundstrom, Paul Horn, Yuezhi Mao, Dmitri Zuev, Alec White,
  David Stuck, Shaama M.S., Shane Yost, Joonho Lee, David Small,
  Daniel Levine, Susi Lehtola, Hugh Burton, Evgeny Epifanovsky
 -----------------------------------------------------------------------
 Exchange:     0.2000 Hartree-Fock + 0.0800 Slater + 0.7200 B88
 Correlation:  0.1900 VWN1RPA + 0.8100 LYP
 Using SG-1 standard quadrature grid
 using 4 threads for integral computing
 -------------------------------------------------------
 OpenMP Integral computing Module                
 Release: version 1.0, May 2013, Q-Chem Inc. Pittsburgh 
 -------------------------------------------------------
 -------------------------------------------------------
 OpenMP BLAS3 based DFT computing Module                
 Release: version 1.0, May 2013, Q-Chem Inc. Pittsburgh 
 -------------------------------------------------------
 A restricted SCF calculation will be
 performed using DIIS
 SCF converges when DIIS error is below 1.0e-08
 ---------------------------------------
  Cycle       Energy         DIIS error
 ---------------------------------------
    1  -17359.9286483578      1.31e-02  
    2  -17355.6706371114      8.33e-04  
    3  -17355.6596789054      9.58e-04  
    4  -17355.7401570380      2.73e-04  
    5  -17355.7581186113      1.38e-04  
    6  -17355.7634266063      1.95e-05  
    7  -17355.7634969528      1.07e-05  
    8  -17355.7635323593      1.93e-06  
    9  -17355.7635334401      4.97e-07  
   10  -17355.7635335012      1.03e-07  
   11  -17355.7635335026      4.76e-08  
   12  -17355.7635335030      1.01e-08  
   13  -17355.7635335033      4.82e-09  Convergence criterion met
 ---------------------------------------
 SCF time:   CPU 35203.67s  wall 8682.00s 
 SCF   energy in the final basis set =   -17355.7635335033
 Total energy in the final basis set =   -17355.7635335033
 A cutoff of  1.0D-11 yielded  77833 shell pairs
 There are    523853 function pairs (    661613 Cartesian)

 -------------------------------------------------------
 OpenMP Integral Computing Module                       
 Release: version 1.0, May 2013, Q-Chem Inc. Pittsburgh 
 -------------------------------------------------------
 Integral Job Info:
 Integral job number is                      11
 Integral operator is                         1
 short-range coefficients                     0
 long-range coefficients              100000000
 Omega coefficients                           0
 if combine SR and LR in K                    0
 Integral screening is                        0
 Integral computing path is                   2
 max size of driver memory is            800000
 size of driver memory is                776718
 size of scratch memory is             29093420
 max col of scratch BK array              10000
 max len of scratch array in speh3          662
 max len of scratch index in speh4           32
 max int batch size is                      520
 min int batch size is                       52
 fixed nKL is                                18
 max L of basis functions is                  3
 order of int derivative is                   0
 number of shells is                        536
 number of basis is                        1499
 number of cartesian basis is              1499
 number of contracted shell pairs         77833
 number of primitive shell pairs         173008
 maxK2 (contraction) of shell pair           64
 max number of K2 of shell pair               1
 max number of CS2 of shell pair          14749
 max number of PS2 of shell pair          14749
 mem total for path MDJ                 1773872
 -------------------------------------------------------

 Exchange:     0.2000 Hartree-Fock + 0.0800 Slater + 0.7200 B88
 Correlation:  0.1900 VWN1RPA + 0.8100 LYP
 Using SG-1 standard quadrature grid
 Direct TDDFT/TDA calculation will be performed
 Triplet excitation energies requested
 Singlet excitation energies requested
 CIS energy converged when residual is below 10e- 8
 NRoots was altered as:  4 -->  5
 ---------------------------------------------------
 Iter    Rts Conv    Rts Left    Ttl Dev     Max Dev
 ---------------------------------------------------
   1         0           5      0.000122    0.000025
   2         0           5      0.000037    0.000008
   3         0           5      0.000021    0.000005
   4         0           5      0.000009    0.000002
   5         0           5      0.000005    0.000002
   6         0           5      0.000003    0.000001
   7         0           5      0.000001    0.000001
   8         0           5      0.000001    0.000000
   9         3           2      0.000000    0.000000
  10         3           2      0.000000    0.000000
  11         3           2      0.000000    0.000000
  12         3           2      0.000000    0.000000
  13         5           0      0.000000    0.000000    Roots Converged
 ---------------------------------------------------
 Triplets done: starting singlet calculation
 ---------------------------------------------------
 Iter    Rts Conv    Rts Left    Ttl Dev     Max Dev
 ---------------------------------------------------
  14         0           5      0.000272    0.000061
  15         0           5      0.000075    0.000015
  16         0           5      0.000045    0.000010
  17         0           5      0.000021    0.000006
  18         0           5      0.000010    0.000003
  19         0           5      0.000006    0.000002
  20         0           5      0.000003    0.000001
  21         0           5      0.000002    0.000001
  22         0           5      0.000001    0.000001
  23         0           5      0.000001    0.000000
  24         0           5      0.000000    0.000000
  25         0           5      0.000000    0.000000
  26         2           3      0.000000    0.000000
  27         2           3      0.000000    0.000000
  28         5           0      0.000000    0.000000    Roots Converged



*********SPIN-ORBIT COUPLING JOB BEGINS HERE*********


=======================================================================================
    SPIN-ORBIT COUPLING BETWEEN THE SINGLET GROUND STATE AND EXCITED TRIPLET STATE
=======================================================================================

SOC between the singlet ground state and excited triplet states (ms=0):
T1(ms=0)      0.000000  +  18.748619i    cm-1
T2(ms=0)      0.000000  +  -17.600465i    cm-1
T3(ms=0)      0.000000  +  -0.206030i    cm-1
T4(ms=0)      0.000000  +  22.415982i    cm-1
T5(ms=0)      0.000000  +  -21.775101i    cm-1
SOC between the singlet ground state and excited triplet states (ms=1):
T1(ms=1)      -0.030051  + (12.422081i)    cm-1
T2(ms=1)      -0.038733  + (13.388169i)    cm-1
T3(ms=1)      -0.064679  + (0.097867i)    cm-1
T4(ms=1)      -0.151716  + (15.339548i)    cm-1
T5(ms=1)      -0.007708  + (15.900472i)    cm-1
SOC between the singlet ground state and excited triplet states (ms=-1):
T1(ms=-1)     -0.030051  - (12.422081i)    cm-1
T2(ms=-1)     -0.038733  - (13.388169i)    cm-1
T3(ms=-1)     -0.064679  - (0.097867i)    cm-1
T4(ms=-1)     -0.151716  - (15.339548i)    cm-1
T5(ms=-1)     -0.007708  - (15.900472i)    cm-1
Total SOC between the singlet ground state and excited triplet states:
T1      25.692970    cm-1
T2      25.850832    cm-1
T3      0.264521    cm-1
T4      31.194964    cm-1
T5      31.301839    cm-1




=======================================================================================
                     SPIN-ORBIT COUPLING BETWEEN EXCITED TRIPLET STATES
=======================================================================================

SOC between the T1 (ms=0) state and excited triplet states (ms=1):
T2(ms=1)      -131.001604  + (-0.053334i)    cm-1
T3(ms=1)      -0.479360  + (93.186749i)    cm-1
T4(ms=1)      -0.044309  + (-0.022318i)    cm-1
T5(ms=1)      -5.913209  + (-0.042881i)    cm-1
SOC between the T1 (ms=0) state and excited triplet states (ms=-1):
T2(ms=-1)     131.001604  + (-0.053334i)    cm-1
T3(ms=-1)     0.479360  + (93.186749i)    cm-1
T4(ms=-1)     0.044309  + (-0.022318i)    cm-1
T5(ms=-1)     5.913209  + (-0.042881i)    cm-1
SOC between the T1 (ms=1) state and excited triplet states (ms=0):
T2(ms=0)      131.001604  + (-0.053334i)    cm-1
T3(ms=0)      0.479360  + (93.186749i)    cm-1
T4(ms=0)      0.044309  + (-0.022318i)    cm-1
T5(ms=0)      5.913209  + (-0.042881i)    cm-1
SOC between the T1 (ms=1) state and excited triplet states (ms=1):
T2(ms=1)      0.000000  + (-0.871134i)    cm-1
T3(ms=1)      0.000000  + (123.247398i)    cm-1
T4(ms=1)      0.000000  + (0.355878i)    cm-1
T5(ms=1)      0.000000  + (-0.071501i)    cm-1
SOC between the T1 (ms=-1) state and excited triplet states (ms=0):
T2(ms=0)      -131.001604  + (-0.053334i)    cm-1
T3(ms=0)      -0.479360  + (93.186749i)    cm-1
T4(ms=0)      -0.044309  + (-0.022318i)    cm-1
T5(ms=0)      -5.913209  + (-0.042881i)    cm-1
SOC between the T1 (ms=-1) state and excited triplet states (ms=-1):
T2(ms=-1)     0.000000  + (0.871134i)    cm-1
T3(ms=-1)     0.000000  + (-123.247398i)    cm-1
T4(ms=-1)     0.000000  + (-0.355878i)    cm-1
T5(ms=-1)     0.000000  + (0.071501i)    cm-1
Total SOC between the T1 state and excited triplet states:
T2      262.006127    cm-1
T3      255.178061    cm-1
T4      0.512975    cm-1
T5      11.827161    cm-1



SOC between the T2 (ms=0) state and excited triplet states (ms=1):
T3(ms=1)      -0.388129  + (-87.156491i)    cm-1
T4(ms=1)      5.948656  + (-0.011836i)    cm-1
T5(ms=1)      -0.017700  + (0.184692i)    cm-1
SOC between the T2 (ms=0) state and excited triplet states (ms=-1):
T3(ms=-1)     0.388129  + (-87.156491i)    cm-1
T4(ms=-1)     -5.948656  + (-0.011836i)    cm-1
T5(ms=-1)     0.017700  + (0.184692i)    cm-1
SOC between the T2 (ms=1) state and excited triplet states (ms=0):
T3(ms=0)      0.388129  + (-87.156491i)    cm-1
T4(ms=0)      -5.948656  + (-0.011836i)    cm-1
T5(ms=0)      0.017700  + (0.184692i)    cm-1
SOC between the T2 (ms=1) state and excited triplet states (ms=1):
T3(ms=1)      0.000000  + (131.778759i)    cm-1
T4(ms=1)      0.000000  + (-0.053578i)    cm-1
T5(ms=1)      0.000000  + (-0.160821i)    cm-1
SOC between the T2 (ms=-1) state and excited triplet states (ms=0):
T3(ms=0)      -0.388129  + (-87.156491i)    cm-1
T4(ms=0)      5.948656  + (-0.011836i)    cm-1
T5(ms=0)      -0.017700  + (0.184692i)    cm-1
SOC between the T2 (ms=-1) state and excited triplet states (ms=-1):
T3(ms=-1)     0.000000  + (-131.778759i)    cm-1
T4(ms=-1)     0.000000  + (0.053578i)    cm-1
T5(ms=-1)     0.000000  + (0.160821i)    cm-1
Total SOC between the T2 state and excited triplet states:
T3      255.180134    cm-1
T4      11.897577    cm-1
T5      0.435228    cm-1



SOC between the T3 (ms=0) state and excited triplet states (ms=1):
T4(ms=1)      0.002511  + (-1.494415i)    cm-1
T5(ms=1)      -0.015304  + (1.452897i)    cm-1
SOC between the T3 (ms=0) state and excited triplet states (ms=-1):
T4(ms=-1)     -0.002511  + (-1.494415i)    cm-1
T5(ms=-1)     0.015304  + (1.452897i)    cm-1
SOC between the T3 (ms=1) state and excited triplet states (ms=0):
T4(ms=0)      -0.002511  + (-1.494415i)    cm-1
T5(ms=0)      0.015304  + (1.452897i)    cm-1
SOC between the T3 (ms=1) state and excited triplet states (ms=1):
T4(ms=1)      0.000000  + (-2.051391i)    cm-1
T5(ms=1)      0.000000  + (-2.180163i)    cm-1
SOC between the T3 (ms=-1) state and excited triplet states (ms=0):
T4(ms=0)      0.002511  + (-1.494415i)    cm-1
T5(ms=0)      -0.015304  + (1.452897i)    cm-1
SOC between the T3 (ms=-1) state and excited triplet states (ms=-1):
T4(ms=-1)     0.000000  + (2.051391i)    cm-1
T5(ms=-1)     0.000000  + (2.180163i)    cm-1
Total SOC between the T3 state and excited triplet states:
T4      4.165278    cm-1
T5      4.236838    cm-1



SOC between the T4 (ms=0) state and excited triplet states (ms=1):
T5(ms=1)      -91.164967  + (0.014580i)    cm-1
SOC between the T4 (ms=0) state and excited triplet states (ms=-1):
T5(ms=-1)     91.164967  + (0.014580i)    cm-1
SOC between the T4 (ms=1) state and excited triplet states (ms=0):
T5(ms=0)      91.164967  + (0.014580i)    cm-1
SOC between the T4 (ms=1) state and excited triplet states (ms=1):
T5(ms=1)      0.000000  + (-0.396750i)    cm-1
SOC between the T4 (ms=-1) state and excited triplet states (ms=0):
T5(ms=0)      -91.164967  + (0.014580i)    cm-1
SOC between the T4 (ms=-1) state and excited triplet states (ms=-1):
T5(ms=-1)     0.000000  + (0.396750i)    cm-1
Total SOC between the T4 state and excited triplet states:
T5      182.330801    cm-1







=======================================================================================
         SPIN-ORBIT COUPLING BETWEEN EXCITED SINGLET STATES AND TRIPLET STATES
=======================================================================================

SOC between the S1 state and excited triplet states (ms=0):
T1(ms=0)      0.000000  +  -0.267159i    cm-1
T2(ms=0)      0.000000  +  -1.116392i    cm-1
T3(ms=0)      0.000000  +  115.509992i    cm-1
T4(ms=0)      0.000000  +  -0.419830i    cm-1
T5(ms=0)      0.000000  +  0.189458i    cm-1
SOC between the S1 state and excited triplet states (ms=1):
T1(ms=1)      (8.325156)  + (0.207699i)    cm-1
T2(ms=1)      (128.361229)  + (-0.119712i)    cm-1
T3(ms=1)      (0.506635)  + (-99.549463i)    cm-1
T4(ms=1)      (-0.345269)  + (-0.086999i)    cm-1
T5(ms=1)      (-4.809612)  + (-0.019406i)    cm-1
SOC between the S1 state and excited triplet states (ms=-1):
T1(ms=-1)    -(8.325156)  + (0.207699i)    cm-1
T2(ms=-1)    -(128.361229)  + (-0.119712i)    cm-1
T3(ms=-1)    -(0.506635)  + (-99.549463i)    cm-1
T4(ms=-1)    -(-0.345269)  + (-0.086999i)    cm-1
T5(ms=-1)    -(-4.809612)  + (-0.019406i)    cm-1
Total SOC between the S1 state and excited triplet states:
T1      11.780242    cm-1
T2      181.533703    cm-1
T3      182.107833    cm-1
T4      0.655604    cm-1
T5      6.804512    cm-1



SOC between the S2 state and excited triplet states (ms=0):
T1(ms=0)      0.000000  +  1.007063i    cm-1
T2(ms=0)      0.000000  +  0.112956i    cm-1
T3(ms=0)      0.000000  +  140.749259i    cm-1
T4(ms=0)      0.000000  +  -0.127601i    cm-1
T5(ms=0)      0.000000  +  0.134956i    cm-1
SOC between the S2 state and excited triplet states (ms=1):
T1(ms=1)      (-128.328744)  + (-0.157211i)    cm-1
T2(ms=1)      (8.331348)  + (0.164410i)    cm-1
T3(ms=1)      (0.423971)  + (81.620168i)    cm-1
T4(ms=1)      (4.615128)  + (-0.027050i)    cm-1
T5(ms=1)      (-0.325190)  + (0.114812i)    cm-1
SOC between the S2 state and excited triplet states (ms=-1):
T1(ms=-1)    -(-128.328744)  + (-0.157211i)    cm-1
T2(ms=-1)    -(8.331348)  + (0.164410i)    cm-1
T3(ms=-1)    -(0.423971)  + (81.620168i)    cm-1
T4(ms=-1)    -(4.615128)  + (-0.027050i)    cm-1
T5(ms=-1)    -(-0.325190)  + (0.114812i)    cm-1
Total SOC between the S2 state and excited triplet states:
T1      181.487180    cm-1
T2      11.785141    cm-1
T3      182.028616    cm-1
T4      6.528136    cm-1
T5      0.506038    cm-1



SOC between the S3 state and excited triplet states (ms=0):
T1(ms=0)      0.000000  +  -126.027349i    cm-1
T2(ms=0)      0.000000  +  -134.848859i    cm-1
T3(ms=0)      0.000000  +  -0.022908i    cm-1
T4(ms=0)      0.000000  +  20.215802i    cm-1
T5(ms=0)      0.000000  +  20.966972i    cm-1
SOC between the S3 state and excited triplet states (ms=1):
T1(ms=1)      (-0.615835)  + (95.299371i)    cm-1
T2(ms=1)      (-0.582413)  + (-89.220166i)    cm-1
T3(ms=1)      (0.003677)  + (0.288525i)    cm-1
T4(ms=1)      (-0.049475)  + (-14.748000i)    cm-1
T5(ms=1)      (-0.028184)  + (14.381510i)    cm-1
SOC between the S3 state and excited triplet states (ms=-1):
T1(ms=-1)    -(-0.615835)  + (95.299371i)    cm-1
T2(ms=-1)    -(-0.582413)  + (-89.220166i)    cm-1
T3(ms=-1)    -(0.003677)  + (0.288525i)    cm-1
T4(ms=-1)    -(-0.049475)  + (-14.748000i)    cm-1
T5(ms=-1)    -(-0.028184)  + (14.381510i)    cm-1
Total SOC between the S3 state and excited triplet states:
T1      184.519894    cm-1
T2      184.676390    cm-1
T3      0.408711    cm-1
T4      29.046352    cm-1
T5      29.210806    cm-1



SOC between the S4 state and excited triplet states (ms=0):
T1(ms=0)      0.000000  +  -0.006141i    cm-1
T2(ms=0)      0.000000  +  -0.199001i    cm-1
T3(ms=0)      0.000000  +  4.095250i    cm-1
T4(ms=0)      0.000000  +  -0.129215i    cm-1
T5(ms=0)      0.000000  +  -0.417812i    cm-1
SOC between the S4 state and excited triplet states (ms=1):
T1(ms=1)      (0.823200)  + (-0.083029i)    cm-1
T2(ms=1)      (10.241550)  + (0.000384i)    cm-1
T3(ms=1)      (0.061877)  + (-3.690156i)    cm-1
T4(ms=1)      (13.169230)  + (-0.073584i)    cm-1
T5(ms=1)      (120.421159)  + (0.014774i)    cm-1
SOC between the S4 state and excited triplet states (ms=-1):
T1(ms=-1)    -(0.823200)  + (-0.083029i)    cm-1
T2(ms=-1)    -(10.241550)  + (0.000384i)    cm-1
T3(ms=-1)    -(0.061877)  + (-3.690156i)    cm-1
T4(ms=-1)    -(13.169230)  + (-0.073584i)    cm-1
T5(ms=-1)    -(120.421159)  + (0.014774i)    cm-1
Total SOC between the S4 state and excited triplet states:
T1      1.170103    cm-1
T2      14.485106    cm-1
T3      6.634247    cm-1
T4      18.624842    cm-1
T5      170.301750    cm-1



SOC between the S5 state and excited triplet states (ms=0):
T1(ms=0)      0.000000  +  0.050877i    cm-1
T2(ms=0)      0.000000  +  0.214329i    cm-1
T3(ms=0)      0.000000  +  5.103321i    cm-1
T4(ms=0)      0.000000  +  0.421018i    cm-1
T5(ms=0)      0.000000  +  -0.135903i    cm-1
SOC between the S5 state and excited triplet states (ms=1):
T1(ms=1)      (-10.224285)  + (-0.003264i)    cm-1
T2(ms=1)      (0.818062)  + (-0.012767i)    cm-1
T3(ms=1)      (0.035328)  + (2.878657i)    cm-1
T4(ms=1)      (-120.385198)  + (0.024733i)    cm-1
T5(ms=1)      (13.266083)  + (-0.123826i)    cm-1
SOC between the S5 state and excited triplet states (ms=-1):
T1(ms=-1)    -(-10.224285)  + (-0.003264i)    cm-1
T2(ms=-1)    -(0.818062)  + (-0.012767i)    cm-1
T3(ms=-1)    -(0.035328)  + (2.878657i)    cm-1
T4(ms=-1)    -(-120.385198)  + (0.024733i)    cm-1
T5(ms=-1)    -(13.266083)  + (-0.123826i)    cm-1
Total SOC between the S5 state and excited triplet states:
T1      14.459413    cm-1
T2      1.176738    cm-1
T3      6.528378    cm-1
T4      170.250905    cm-1
T5      18.762384    cm-1






            *********SOC CODE ENDS HERE*********




                    STATE-TO-STATE TRANSITION MOMENTS


    Electron Dipole Moments of Ground State
 -----------------------------------------------------
   State     X           Y           Z(a.u.) 
 -----------------------------------------------------
       0     0.112694    0.044890   -0.007316
 -----------------------------------------------------

 Within CIS/TDA Excited States:

    Electron Dipole Moments of Triplet Excited State
 -----------------------------------------------------
   State     X           Y           Z(a.u.) 
 -----------------------------------------------------
       1     0.112897    0.011182   -0.006232
       2     0.112298    0.078999   -0.008589
       3     0.117763    0.044950   -0.007666
       4     0.112373    0.296731   -0.005787
       5     0.112223   -0.204689   -0.007970
 -----------------------------------------------------

                Transition Moments Between Ground and Triplet Excited States
 --------------------------------------------------------------------------------
    States   X          Y          Z           Strength(a.u.)
 --------------------------------------------------------------------------------
    0    1   0.000000   0.000000   0.000000              0
    0    2   0.000000   0.000000   0.000000              0
    0    3   0.000000   0.000000   0.000000              0
    0    4   0.000000   0.000000   0.000000              0
    0    5   0.000000   0.000000   0.000000              0
 --------------------------------------------------------------------------------

                Transition Moments Between Triplet Excited States
 --------------------------------------------------------------------------------
    States   X          Y          Z           Strength(a.u.)
 --------------------------------------------------------------------------------
    1    2   0.001486  -0.001846   0.000060   1.811752E-11
    1    3  -0.197286  -0.000168   0.184551   7.009529E-05
    1    4   0.000450   0.156552   0.000153   0.0001019258
    1    5  -0.000514   0.007618  -0.000561   2.441596E-07
    2    3   0.183995   0.000023   0.197032    6.95677E-05
    2    4  -0.000592   0.007589   0.000528   2.419326E-07
    2    5   0.000653  -0.156029   0.000605   0.0001013389
    3    4   0.146788  -0.000164  -0.142521   0.0001338773
    3    5  -0.142071  -0.000276  -0.146450   0.0001334403
    4    5   0.000974   0.007888   0.000104   4.383104E-10
 --------------------------------------------------------------------------------

 Within CIS/TDA Excited States:

    Electron Dipole Moments of Singlet Excited State
 -----------------------------------------------------
   State     X           Y           Z(a.u.) 
 -----------------------------------------------------
       6     0.112100    0.188843   -0.004591
       7     0.112089   -0.098642   -0.010010
       8     0.122357    0.044650   -0.008372
       9     0.112308    0.036726   -0.005345
      10     0.112275    0.057197   -0.007799
 -----------------------------------------------------

                Transition Moments Between Ground and Singlet Excited States
 --------------------------------------------------------------------------------
    States   X          Y          Z           Strength(a.u.)
 --------------------------------------------------------------------------------
    0    6   0.087815   0.001087  -0.106985    0.002015202
    0    7   0.106824  -0.000959   0.087572    0.002007097
    0    8   0.000006   0.194655   0.001049    0.004011372
    0    9  -0.055532  -0.000133   0.071582     0.00088486
    0   10  -0.071394   0.000110  -0.055277   0.0008789183
 --------------------------------------------------------------------------------

                Transition Moments Between Singlet Excited States
 --------------------------------------------------------------------------------
    States   X          Y          Z           Strength(a.u.)
 --------------------------------------------------------------------------------
    6    7   0.002857   0.029676   0.000697   1.312044E-09
    6    8  -0.285173  -0.001712   0.233866   9.216648E-05
    6    9  -0.000271   0.098730   0.000739   2.555015E-05
    6   10   0.000269   0.022317   0.000037   1.306145E-06
    7    8   0.233005  -0.001529   0.284909   9.159221E-05
    7    9   0.000344   0.022363   0.000083   1.310378E-06
    7   10  -0.000099  -0.097558   0.000113   2.494328E-05
    8    9  -0.025284  -0.000514   0.019496   1.981599E-06
    8   10   0.019503  -0.000639   0.025153   1.970741E-06
    9   10   0.001251  -0.001923   0.000429   6.779778E-12
 --------------------------------------------------------------------------------

                    END OF TRANSITION MOMEMT CALCULATION

 STSman time:  CPU 85.62 s  wall 70.00 s

 ---------------------------------------------------

 ---------------------------------------------------
         TDDFT/TDA Excitation Energies              
 ---------------------------------------------------

 Excited state   1: excitation energy (eV) =    4.0778
 Total energy for state  1:                -17355.61367744 au
    Multiplicity: Triplet
    Trans. Mom.:  0.0000 X   0.0000 Y   0.0000 Z
    Strength   :     0.0000000000
    D(266) --> V(  1) amplitude =  0.9418

 Excited state   2: excitation energy (eV) =    4.0779
 Total energy for state  2:                -17355.61367260 au
    Multiplicity: Triplet
    Trans. Mom.:  0.0000 X   0.0000 Y   0.0000 Z
    Strength   :     0.0000000000
    D(265) --> V(  1) amplitude =  0.9418

 Excited state   3: excitation energy (eV) =    4.1170
 Total energy for state  3:                -17355.61223675 au
    Multiplicity: Triplet
    Trans. Mom.:  0.0000 X   0.0000 Y   0.0000 Z
    Strength   :     0.0000000000
    D(264) --> V(  1) amplitude =  0.9266

 Excited state   4: excitation energy (eV) =    4.2475
 Total energy for state  4:                -17355.60743931 au
    Multiplicity: Triplet
    Trans. Mom.:  0.0000 X   0.0000 Y   0.0000 Z
    Strength   :     0.0000000000
    D(266) --> V(  2) amplitude =  0.8769
    D(266) --> V(  4) amplitude =  0.3305

 Excited state   5: excitation energy (eV) =    4.2478
 Total energy for state  5:                -17355.60742891 au
    Multiplicity: Triplet
    Trans. Mom.:  0.0000 X   0.0000 Y   0.0000 Z
    Strength   :     0.0000000000
    D(265) --> V(  2) amplitude =  0.8771
    D(265) --> V(  4) amplitude = -0.3300

 Excited state   6: excitation energy (eV) =    4.2934
 Total energy for state  6:                -17355.60575432 au
    Multiplicity: Singlet
    Trans. Mom.:  0.0878 X   0.0011 Y  -0.1070 Z
    Strength   :     0.0020152016
    D(266) --> V(  1) amplitude =  0.9863

 Excited state   7: excitation energy (eV) =    4.2935
 Total energy for state  7:                -17355.60575211 au
    Multiplicity: Singlet
    Trans. Mom.:  0.1068 X  -0.0010 Y   0.0876 Z
    Strength   :     0.0020070975
    D(265) --> V(  1) amplitude =  0.9864

 Excited state   8: excitation energy (eV) =    4.3210
 Total energy for state  8:                -17355.60473793 au
    Multiplicity: Singlet
    Trans. Mom.:  0.0000 X   0.1947 Y   0.0010 Z
    Strength   :     0.0040113716
    D(264) --> V(  1) amplitude =  0.9771

 Excited state   9: excitation energy (eV) =    4.4004
 Total energy for state  9:                -17355.60182285 au
    Multiplicity: Singlet
    Trans. Mom.: -0.0555 X  -0.0001 Y   0.0716 Z
    Strength   :     0.0008848600
    D(266) --> V(  2) amplitude =  0.9843

 Excited state  10: excitation energy (eV) =    4.4004
 Total energy for state 10:                -17355.60182098 au
    Multiplicity: Singlet
    Trans. Mom.: -0.0714 X   0.0001 Y  -0.0553 Z
    Strength   :     0.0008789183
    D(265) --> V(  2) amplitude =  0.9843

 ---------------------------------------------------
  SETman timing summary (seconds)
  CPU time            192153.30s
  System time           7467.25s
  Wall time            47158.33s

 --------------------------------------------------------------

                    Orbital Energies (a.u.)
 --------------------------------------------------------------

 Alpha MOs
 -- Occupied --
*******-398.737-398.737-398.737-398.737 -66.124 -66.124 -66.124
-66.124 -66.114 -66.114 -66.114 -66.114 -66.114 -66.114 -66.114
-66.114 -66.114 -66.114 -66.114 -66.114 -66.114 -66.114 -66.114
-66.114 -66.111 -66.111 -66.111 -66.111 -49.783 -49.780 -49.780
-49.780 -49.780 -44.303 -44.303 -44.303 -44.301 -44.301 -44.301
-44.301 -44.301 -44.301 -44.301 -44.301 -44.300 -44.300 -44.300
-44.300  -6.215  -6.213  -6.213  -6.213  -6.213  -5.286  -5.286
 -5.286  -5.286  -5.278  -5.278  -5.278  -5.278  -5.278  -5.278
 -5.278  -5.278  -5.278  -5.277  -5.277  -5.277  -5.277  -5.277
 -5.277  -5.277  -5.275  -5.275  -5.275  -5.275  -4.386  -4.386
 -4.386  -4.384  -4.384  -4.384  -4.384  -4.384  -4.384  -4.384
 -4.384  -4.384  -4.384  -4.384  -4.384  -3.644  -3.644  -3.644
 -3.644  -3.644  -3.644  -3.644  -3.644  -3.643  -3.643  -3.643
 -3.643  -3.636  -3.636  -3.636  -3.636  -3.636  -3.636  -3.636
 -3.636  -3.636  -3.636  -3.636  -3.636  -3.636  -3.636  -3.636
 -3.636  -3.635  -3.635  -3.635  -3.635  -3.635  -3.635  -3.635
 -3.635  -3.635  -3.635  -3.635  -3.635  -3.635  -3.635  -3.635
 -3.635  -3.635  -3.635  -3.635  -3.635  -3.635  -3.635  -3.635
 -3.635  -3.635  -3.635  -3.635  -3.635  -3.635  -3.635  -3.635
 -3.635  -3.633  -3.633  -3.633  -3.633  -3.633  -3.633  -3.633
 -3.633  -3.633  -3.633  -3.633  -3.633  -1.209  -1.209  -1.209
 -1.208  -1.208  -1.207  -1.207  -1.207  -1.207  -1.207  -1.207
 -1.207  -1.207  -1.207  -1.207  -1.207  -1.207  -1.205  -1.205
 -1.205  -1.205  -1.205  -1.205  -1.205  -1.205  -0.632  -0.606
 -0.606  -0.604  -0.584  -0.578  -0.578  -0.570  -0.565  -0.562
 -0.557  -0.557  -0.554  -0.524  -0.524  -0.524  -0.495  -0.490
 -0.490  -0.488  -0.486  -0.482  -0.471  -0.465  -0.465  -0.437
 -0.437  -0.435  -0.401  -0.384  -0.383  -0.383  -0.378  -0.373
 -0.371  -0.369  -0.369  -0.367  -0.359  -0.352  -0.352  -0.350
 -0.348  -0.345  -0.345  -0.344  -0.344  -0.335  -0.334  -0.334
 -0.331  -0.331  -0.331  -0.305  -0.305  -0.305  -0.297  -0.297
 -0.295  -0.292  -0.291  -0.286  -0.286  -0.285  -0.275  -0.273
 -0.273  -0.272  -0.270  -0.264  -0.260  -0.259  -0.259  -0.252
 -0.250  -0.250
 -- Virtual --
 -0.069  -0.064  -0.059  -0.056  -0.055  -0.055  -0.054  -0.046
 -0.040  -0.040  -0.039  -0.039  -0.038  -0.036  -0.035  -0.032
 -0.032  -0.022  -0.022  -0.019  -0.016  -0.015  -0.008  -0.008
 -0.005  -0.004   0.002   0.002   0.003   0.006   0.008   0.008
  0.009   0.009   0.019   0.019   0.019   0.023   0.023   0.023
  0.026   0.036   0.036   0.038   0.040   0.041   0.041   0.043
  0.045   0.052   0.052   0.053   0.061   0.064   0.066   0.066
  0.066   0.066   0.068   0.069   0.069   0.077   0.080   0.088
  0.088   0.088   0.088   0.091   0.091   0.092   0.103   0.103
  0.107   0.109   0.111   0.111   0.117   0.118   0.118   0.119
  0.119   0.121   0.125   0.125   0.126   0.127   0.128   0.131
  0.131   0.133   0.133   0.137   0.138   0.147   0.147   0.147
  0.155   0.156   0.162   0.168   0.168   0.169   0.170   0.175
  0.180   0.180   0.183   0.183   0.183   0.187   0.189   0.189
  0.189   0.195   0.196   0.197   0.197   0.202   0.202   0.204
  0.204   0.214   0.214   0.217   0.217   0.224   0.227   0.231
  0.236   0.241   0.241   0.242   0.246   0.246   0.249   0.250
  0.251   0.252   0.252   0.260   0.260   0.263   0.263   0.263
  0.265   0.265   0.267   0.272   0.272   0.273   0.276   0.280
  0.280   0.281   0.281   0.283   0.286   0.286   0.289   0.294
  0.294   0.294   0.299   0.311   0.311   0.311   0.312   0.314
  0.315   0.315   0.316   0.317   0.321   0.321   0.324   0.324
  0.325   0.325   0.330   0.333   0.333   0.342   0.346   0.346
  0.346   0.351   0.351   0.351   0.355   0.356   0.361   0.363
  0.364   0.364   0.368   0.369   0.370   0.370   0.376   0.376
  0.383   0.388   0.388   0.390   0.390   0.390   0.391   0.393
  0.402   0.402   0.402   0.405   0.415   0.415   0.416   0.418
  0.419   0.419   0.419   0.422   0.422   0.425   0.429   0.432
  0.433   0.433   0.435   0.435   0.436   0.436   0.442   0.446
  0.446   0.448   0.448   0.449   0.449   0.449   0.450   0.451
  0.452   0.460   0.461   0.461   0.465   0.469   0.475   0.476
  0.476   0.477   0.479   0.480   0.482   0.482   0.483   0.485
  0.485   0.485   0.493   0.495   0.495   0.509   0.509   0.511
  0.513   0.518   0.519   0.522   0.525   0.525   0.531   0.535
  0.539   0.541   0.541   0.545   0.547   0.549   0.549   0.554
  0.554   0.555   0.556   0.556   0.561   0.567   0.567   0.570
  0.571   0.571   0.574   0.575   0.583   0.583   0.588   0.591
  0.591   0.593   0.597   0.598   0.598   0.598   0.599   0.602
  0.606   0.606   0.607   0.613   0.613   0.622   0.622   0.622
  0.626   0.630   0.632   0.632   0.633   0.635   0.642   0.647
  0.647   0.647   0.652   0.652   0.652   0.654   0.654   0.658
  0.662   0.662   0.667   0.667   0.675   0.679   0.685   0.685
  0.689   0.689   0.703   0.703   0.703   0.705   0.705   0.717
  0.717   0.722   0.722   0.725   0.725   0.734   0.738   0.738
  0.742   0.742   0.743   0.748   0.749   0.749   0.759   0.761
  0.761   0.763   0.764   0.764   0.768   0.771   0.780   0.792
  0.799   0.799   0.817   0.817   0.823   0.831   0.834   0.834
  0.835   0.847   0.858   0.866   0.866   0.874   0.877   0.887
  0.887   0.888   0.896   0.896   0.901   0.906   0.911   0.911
  0.911   0.912   0.918   0.922   0.925   0.925   0.925   0.929
  0.930   0.933   0.933   0.935   0.935   0.935   0.940   0.941
  0.957   0.957   0.967   0.970   0.970   0.975   0.976   0.976
  0.979   0.980   0.980   0.980   0.981   0.985   0.987   0.987
  0.987   0.988   0.990   0.993   0.993   1.004   1.005   1.010
  1.010   1.014   1.021   1.021   1.023   1.027   1.030   1.032
  1.032   1.032   1.033   1.033   1.036   1.036   1.039   1.039
  1.040   1.043   1.043   1.043   1.044   1.047   1.047   1.050
  1.051   1.051   1.054   1.056   1.056   1.058   1.061   1.061
  1.061   1.062   1.064   1.065   1.065   1.071   1.071   1.071
  1.072   1.075   1.077   1.078   1.078   1.078   1.082   1.082
  1.084   1.085   1.085   1.088   1.091   1.091   1.091   1.095
  1.095   1.102   1.103   1.104   1.104   1.106   1.110   1.113
  1.113   1.114   1.116   1.116   1.124   1.127   1.127   1.129
  1.134   1.139   1.139   1.142   1.150   1.150   1.153   1.157
  1.157   1.158   1.161   1.162   1.168   1.168   1.171   1.171
  1.171   1.173   1.186   1.186   1.187   1.189   1.189   1.190
  1.195   1.195   1.200   1.200   1.204   1.204   1.206   1.208
  1.211   1.218   1.219   1.219   1.224   1.226   1.226   1.226
  1.228   1.229   1.231   1.236   1.240   1.240   1.240   1.244
  1.244   1.251   1.252   1.252   1.253   1.259   1.259   1.260
  1.266   1.270   1.270   1.273   1.276   1.276   1.284   1.284
  1.288   1.293   1.293   1.305   1.306   1.306   1.308   1.314
  1.320   1.323   1.323   1.326   1.330   1.330   1.332   1.336
  1.337   1.339   1.339   1.342   1.342   1.350   1.350   1.354
  1.355   1.357   1.359   1.360   1.360   1.366   1.366   1.371
  1.381   1.382   1.384   1.384   1.387   1.402   1.403   1.407
  1.408   1.408   1.414   1.424   1.429   1.430   1.430   1.439
  1.439   1.441   1.447   1.447   1.451   1.451   1.452   1.465
  1.468   1.468   1.484   1.484   1.488   1.492   1.492   1.500
  1.502   1.503   1.503   1.503   1.507   1.507   1.507   1.512
  1.514   1.524   1.524   1.524   1.525   1.532   1.532   1.539
  1.539   1.540   1.542   1.546   1.554   1.564   1.565   1.566
  1.569   1.569   1.570   1.572   1.572   1.577   1.579   1.579
  1.582   1.590   1.590   1.592   1.592   1.593   1.599   1.604
  1.609   1.613   1.614   1.614   1.618   1.623   1.623   1.628
  1.629   1.629   1.631   1.639   1.644   1.644   1.647   1.647
  1.650   1.650   1.653   1.661   1.664   1.667   1.667   1.671
  1.672   1.672   1.672   1.682   1.685   1.687   1.687   1.688
  1.691   1.695   1.695   1.701   1.701   1.701   1.706   1.706
  1.706   1.708   1.721   1.726   1.726   1.731   1.738   1.739
  1.740   1.741   1.743   1.745   1.745   1.751   1.751   1.759
  1.765   1.765   1.768   1.769   1.775   1.775   1.775   1.780
  1.780   1.789   1.790   1.792   1.792   1.792   1.800   1.802
  1.802   1.804   1.808   1.809   1.809   1.813   1.826   1.826
  1.827   1.849   1.849   1.850   1.854   1.855   1.855   1.855
  1.859   1.859   1.864   1.864   1.875   1.878   1.878   1.890
  1.894   1.897   1.902   1.907   1.915   1.915   1.915   1.918
  1.918   1.923   1.923   1.924   1.934   1.935   1.943   1.946
  1.949   1.956   1.956   1.960   1.960   1.962   1.962   1.965
  1.965   1.966   1.966   1.979   1.979   1.981   1.981   1.982
  1.982   1.983   1.989   1.989   1.994   2.001   2.001   2.001
  2.002   2.005   2.006   2.015   2.015   2.018   2.018   2.025
  2.025   2.025   2.030   2.038   2.038   2.044   2.045   2.045
  2.049   2.051   2.053   2.054   2.054   2.055   2.057   2.057
  2.057   2.058   2.067   2.067   2.068   2.073   2.073   2.075
  2.075   2.082   2.082   2.084   2.085   2.092   2.096   2.101
  2.101   2.119   2.119   2.119   2.127   2.140   2.144   2.148
  2.148   2.167   2.167   2.167   2.192   2.202   2.202   2.247
  2.252   2.293   2.302   2.303   2.303   2.322   2.322   2.325
  2.338   2.340   2.342   2.351   2.351   2.355   2.365   2.367
  2.367   2.372   2.372   2.375   2.375   2.375   2.384   2.384
  2.386   2.386   2.390   2.390   2.391   2.397   2.404   2.404
  2.414   2.416   2.419   2.434   2.434   2.625   2.677   2.677
  2.682   2.698   2.773   2.773   2.778   2.782   2.805   2.805
  2.809   2.827   2.828   2.830   2.848   2.848   2.865   2.865
  2.865   2.870   2.873   2.873   2.879   2.892   2.892   2.896
  2.902   2.925   2.925   2.926   2.929   2.935   2.935   2.936
  2.940   2.949   2.949   2.952   2.963   2.963   2.973   2.977
  2.977   2.990   3.002   3.002   3.009   3.010   3.015   3.028
  3.028   3.033   3.055   3.091   3.138   3.138   3.158   3.158
  3.169   3.193   4.377   4.383   4.383   4.391   4.391   4.392
  4.400   4.413   4.441   4.441   4.443   4.445   4.508   4.517
  4.517   5.449   5.513   5.539   5.539   5.545   6.241   6.247
  6.258   6.258   6.258   6.264   6.266   6.266   6.275   6.275
  6.279   6.281   6.284   6.284   6.287   6.289   6.298   6.307
  6.308   6.309   6.309   6.316   6.316   6.317   6.322   6.331
  6.336   6.340   6.340   6.348   6.369   6.369   6.374   6.396
  6.397   6.402   6.402   6.402   6.413   6.413   6.443   6.443
  6.443   6.445   6.449   6.451   6.451   6.451   6.462   6.464
  6.464   6.474   6.474   6.497   6.498   6.498   6.512   6.512
  6.526   6.526   6.527   6.532   6.532   6.534   6.547   6.554
  6.554   6.557   6.571   6.571   6.577   6.615  10.080  10.244
 10.244  10.341  10.373  10.410  10.458  10.458  10.499  10.499
 10.501  10.523  10.535  10.550  10.550  10.554  10.597  10.604
 10.610  10.610  10.610  10.652  10.675  10.675
 --------------------------------------------------------------

          Ground-State Mulliken Net Atomic Charges

     Atom                 Charge (a.u.)
  ----------------------------------------
      1 Si                    0.024286
      2 Si                    0.041342
      3 Si                    0.024222
      4 Si                    0.050716
      5 Si                   -0.046505
      6 Ge                    0.075937
      7 Si                   -0.046447
      8 Si                    0.050687
      9 Ge                    0.075927
     10 Si                    0.024356
     11 Si                    0.024353
     12 Si                    0.041327
     13 Si                    0.050690
     14 Si                   -0.046395
     15 Si                    0.050693
     16 Si                    0.050693
     17 Si                    0.041368
     18 Si                    0.024327
     19 Si                    0.024337
     20 Si                    0.050690
     21 Ge                    0.075894
     22 Si                    0.024436
     23 Si                    0.041384
     24 Si                    0.024355
     25 Ge                    0.047162
     26 Si                    0.050679
     27 Si                    0.050698
     28 Ge                    0.075887
     29 Si                   -0.046364
     30 H                    -0.024462
     31 H                    -0.029448
     32 H                    -0.031462
     33 H                    -0.022904
     34 H                    -0.024380
     35 H                    -0.029436
     36 H                    -0.036339
     37 H                     0.002136
     38 H                    -0.036322
     39 H                     0.002142
     40 H                    -0.024432
     41 H                    -0.029457
     42 H                    -0.024449
     43 H                    -0.029447
     44 H                    -0.031463
     45 H                    -0.022900
     46 H                    -0.036334
     47 H                    -0.036324
     48 H                    -0.036323
     49 H                    -0.031476
     50 H                    -0.022930
     51 H                    -0.029452
     52 H                    -0.024434
     53 H                    -0.024457
     54 H                    -0.029452
     55 H                    -0.036321
     56 H                     0.002144
     57 H                    -0.029459
     58 H                    -0.024497
     59 H                    -0.022933
     60 H                    -0.031480
     61 H                    -0.029450
     62 H                    -0.024430
     63 H                    -0.036321
     64 H                    -0.036333
     65 H                     0.002143
  ----------------------------------------
  Sum of atomic charges =    -0.000000

 -----------------------------------------------------------------
                    Cartesian Multipole Moments
 -----------------------------------------------------------------
    Charge (ESU x 10^10)
                -0.0000
    Dipole Moment (Debye)
         X       0.0025      Y       0.0016      Z       0.0000
       Tot       0.0030
    Quadrupole Moments (Debye-Ang)
        XX    -436.2664     XY      -0.0008     YY    -436.0574
        XZ      -0.0053     YZ      -0.0003     ZZ    -436.2651
    Octopole Moments (Debye-Ang^2)
       XXX      -0.0719    XXY       0.0138    XYY      -0.0297
       YYY      -0.0193    XXZ       0.0022    XYZ      13.0458
       YYZ      -0.0071    XZZ      -0.0285    YZZ      -0.0093
       ZZZ       0.0056
    Hexadecapole Moments (Debye-Ang^3)
      XXXX  -15741.8557   XXXY       0.0398   XXYY   -5154.2874
      XYYY       0.0614   YYYY  -15119.3737   XXXZ      -0.0613
      XXYZ      -0.0866   XYYZ      -0.0124   YYYZ      -0.1803
      XXZZ   -5274.3039   XYZZ       0.0310   YYZZ   -5154.2933
      XZZZ       0.0097   YZZZ      -0.2201   ZZZZ  -15741.9001
 -----------------------------------------------------------------
Archival summary:
1\1\NTB-ULB\SP\ProcedureUnspecified\BasisUnspecified\e5i2436\Administrateur\FriApr516:11:302019FriApr516:11:302019\0\\#,ProcedureUnspecified,BasisUnspecified,\\0,1\Ge\Si,1,2.43168\Si,2,2.38021,1,108.792\H,3,1.49154,2,108.446,1,179.728,0\Si,3,2.36439,2,113.225,1,-58.5968,0\H,5,1.48064,3,112.93,2,-69.9478,0\H,5,1.48834,3,107.382,2,171.853,0\H,6,2.2145,5,132.637,3,64.9347,0\Si,8,1.48064,6,132.655,5,-4.85244,0\H,9,1.48834,8,107.392,6,-176.86,0\Si,9,2.36442,8,112.927,6,64.9544,0\H,11,1.49154,9,109.452,8,51.1713,0\Si,3,2.3664,2,112.895,1,58.4783,0\H,13,1.48124,3,112.264,2,71.0634,0\H,13,1.48892,3,107.372,2,-171.28,0\H,14,2.23288,13,132.153,3,-62.3358,0\Si,16,1.48124,14,132.106,13,0.0797827,0\H,17,1.48893,16,107.268,14,179.951,0\Si,13,2.3664,3,110.024,2,-54.7362,0\H,19,1.49154,13,109.291,3,175.513,0\Si,19,2.3644,13,103.411,3,-67.9914,0\H,21,1.48065,19,112.92,13,-167.56,0\H,21,1.48833,19,107.39,13,-49.364,0\H,22,2.215,21,132.712,19,-64.9727,0\Si,24,1.48063,22,132.563,21,4.91005,0\H,25,1.48835,24,107.391,22,176.825,0\Si,25,2.36441,24,112.936,22,-64.9851,0\H,27,1.49154,25,109.452,24,-51.1257,0\Si,27,2.36639,25,103.396,24,-167.489,0\H,29,1.48124,27,112.274,25,166.177,0\H,29,1.48893,27,107.368,25,48.5197,0\H,30,2.23319,29,132.106,27,62.3232,0\Si,32,1.48125,30,132.14,29,-0.0631056,0\H,33,1.48893,32,107.265,30,-179.956,0\Si,29,2.36641,27,110.018,25,-68.0129,0\H,35,1.49155,29,109.283,27,-175.512,0\Si,35,2.36447,29,103.395,27,68.0046,0\H,37,1.48065,35,112.926,29,167.515,0\H,37,1.48834,35,107.383,29,49.3257,0\H,38,2.21452,37,132.648,35,64.9342,0\Si,40,1.48064,38,132.641,37,-4.82058,0\H,41,1.48834,40,107.39,38,-176.893,0\Si,41,2.36442,40,112.937,38,64.9093,0\H,43,1.49154,41,109.45,40,51.1625,0\Si,17,2.36642,16,112.271,14,62.2367,0\H,45,1.49154,17,109.283,16,49.6999,0\Si,45,2.36444,17,103.388,16,166.177,0\H,47,1.48064,45,112.931,17,-167.524,0\H,47,1.48834,45,107.383,17,-49.3282,0\H,48,2.2149,47,132.646,45,-64.927,0\Si,50,1.48064,48,132.633,47,4.82924,0\H,51,1.48834,50,107.39,48,176.88,0\Si,51,2.36448,50,112.929,48,-64.9271,0\H,53,1.49154,51,109.451,50,-51.1563,0\Si,19,2.38021,13,112.907,3,54.7278,0\Si,53,2.38024,51,113.226,50,69.9603,0\Si,11,2.38025,9,113.213,8,-69.9388,0\Ge,47,2.41526,45,109.286,17,66.6276,0\H,58,1.54984,47,109.639,45,177.375,0\Ge,5,2.41527,3,109.287,2,55.8969,0\H,60,1.54983,5,109.643,3,-177.393,0\Ge,25,2.41532,24,112.37,22,59.2012,0\H,62,1.54984,25,109.638,24,51.1961,0\Ge,9,2.41535,8,112.357,6,-59.2329,0\H,64,1.54983,9,109.633,8,-51.2133,0\\\@

 Total job time:  67665.35s(wall), 239193.23s(cpu) 
 Fri Apr  5 16:11:30 2019

        *************************************************************
        *                                                           *
        *  Thank you very much for using Q-Chem.  Have a nice day.  *
        *                                                           *
        *************************************************************


