
Running Job 1 of 1 si17h36.in
qchem si17h36.in_4448.0 /local/2443262.master01.hydra.brussel.vsc/qchem4448/ 0
/apps/brussel/CO7/skylake/software/Q-Chem/5.2.1-intel-2019a-mpich3/exe/qcprog.exe_s si17h36.in_4446.0 /local/2443262.master01.hydra.brussel.vsc/qchem4446/
                  Welcome to Q-Chem
     A Quantum Leap Into The Future Of Chemistry


 Q-Chem 5.2, Q-Chem, Inc., Pleasanton, CA (2019)

 License issued to: SRG Nathalie Vaeck, Universite Libre de Bruxelles

 Yihan Shao,  Zhengting Gan,  E. Epifanovsky,  A. T. B. Gilbert,  M. Wormit,  
 J. Kussmann,  A. W. Lange,  A. Behn,  Jia Deng,  Xintian Feng,  D. Ghosh,  
 M. Goldey,  P. R. Horn,  L. D. Jacobson,  I. Kaliman,  T. Kus,  A. Landau,  
 Jie Liu,  E. I. Proynov,  R. M. Richard,  R. P. Steele,  E. J. Sundstrom,  
 H. L. Woodcock III,  P. M. Zimmerman,  D. Zuev,  B. Albrecht,  E. Alguire,  
 S. A. Baeppler,  D. Barton,  Z. Benda,  Y. A. Bernard,  E. J. Berquist,  
 K. B. Bravaya,  H. Burton,  D. Casanova,  Chun-Min Chang,  Yunqing Chen,  
 A. Chien,  K. D. Closser,  M. P. Coons,  S. Coriani,  S. Dasgupta,  
 A. L. Dempwolff,  M. Diedenhofen,  Hainam Do,  R. G. Edgar,  Po-Tung Fang,  
 S. Faraji,  S. Fatehi,  Qingguo Feng,  K. D. Fenk,  J. Fosso-Tande,  
 J. Gayvert,  Qinghui Ge,  A. Ghysels,  G. Gidofalvi,  J. Gomes,  
 J. Gonthier,  A. Gunina,  D. Hait,  M. W. D. Hanson-Heine,  
 P. H. P. Harbach,  A. W. Hauser,  M. F. Herbst,  J. E. Herr,  
 E. G. Hohenstein,  Z. C. Holden,  Kerwin Hui,  B. C. Huynh,  T.-C. Jagau,  
 Hyunjun Ji,  B. Kaduk,  K. Khistyaev,  Jaehoon Kim,  P. Klunzinger,  K. Koh,  
 D. Kosenkov,  L. Koulias,  T. Kowalczyk,  C. M. Krauter,  A. Kunitsa,  
 Ka Un Lao,  A. Laurent,  K. V. Lawler,  Joonho Lee,  D. Lefrancois,  
 S. Lehtola,  D. S. Levine,  Yi-Pei Li,  You-Sheng Lin,  Fenglai Liu,  
 E. Livshits,  A. Luenser,  P. Manohar,  E. Mansoor,  S. F. Manzer,  
 Shan-Ping Mao,  Yuezhi Mao,  N. Mardirossian,  A. V. Marenich,  
 T. Markovich,  L. A. Martinez-Martinez,  S. A. Maurer,  N. J. Mayhall,  
 S. C. McKenzie,  J.-M. Mewes,  P. Morgante,  A. F. Morrison,  
 J. W. Mullinax,  K. Nanda,  T. S. Nguyen-Beck,  R. Olivares-Amaya,  
 J. A. Parkhill,  Zheng Pei,  T. M. Perrine,  F. Plasser,  P. Pokhilko,  
 S. Prager,  A. Prociuk,  E. Ramos,  D. R. Rehn,  F. Rob,  M. Scheurer,  
 M. Schneider,  N. Sergueev,  S. M. Sharada,  S. Sharma,  D. W. Small,  
 T. Stauch,  T. Stein,  Yu-Chuan Su,  A. J. W. Thom,  A. Tkatchenko,  
 T. Tsuchimochi,  N. M. Tubman,  L. Vogt,  M. L. Vidal,  O. Vydrov,  
 M. A. Watson,  J. Wenzel,  M. de Wergifosse,  T. A. Wesolowski,  A. White,  
 J. Witte,  A. Yamada,  Jun Yang,  K. Yao,  S. Yeganeh,  S. R. Yost,  
 Zhi-Qiang You,  A. Zech,  Igor Ying Zhang,  Xing Zhang,  Yan Zhao,  
 Ying Zhu,  B. R. Brooks,  G. K. L. Chan,  C. J. Cramer,  M. S. Gordon,  
 W. J. Hehre,  A. Klamt,  M. W. Schmidt,  C. D. Sherrill,  D. G. Truhlar,  
 A. Aspuru-Guzik,  R. Baer,  A. T. Bell,  N. A. Besley,  Jeng-Da Chai,  
 A. E. DePrince, III,  R. A. DiStasio Jr.,  A. Dreuw,  B. D. Dunietz,  
 T. R. Furlani,  Chao-Ping Hsu,  Yousung Jung,  Jing Kong,  D. S. Lambrecht,  
 WanZhen Liang,  C. Ochsenfeld,  V. A. Rassolov,  L. V. Slipchenko,  
 J. E. Subotnik,  T. Van Voorhis,  J. M. Herbert,  A. I. Krylov,  
 P. M. W. Gill,  M. Head-Gordon

 Contributors to earlier versions of Q-Chem not listed above: 
 R. D. Adamson,  B. Austin,  J. Baker,  G. J. O. Beran,  K. Brandhorst,  
 S. T. Brown,  E. F. C. Byrd,  A. K. Chakraborty,  C.-L. Cheng,  
 Siu Hung Chien,  D. M. Chipman,  D. L. Crittenden,  H. Dachsel,  
 R. J. Doerksen,  A. D. Dutoi,  L. Fusti-Molnar,  W. A. Goddard III,  
 A. Golubeva-Zadorozhnaya,  S. R. Gwaltney,  G. Hawkins,  A. Heyden,  
 S. Hirata,  G. Kedziora,  F. J. Keil,  C. Kelley,  Jihan Kim,  R. A. King,  
 R. Z. Khaliullin,  P. P. Korambath,  W. Kurlancheek,  A. M. Lee,  M. S. Lee,  
 S. V. Levchenko,  Ching Yeh Lin,  D. Liotard,  R. C. Lochan,  I. Lotan,  
 P. E. Maslen,  N. Nair,  D. P. O'Neill,  D. Neuhauser,  E. Neuscamman,  
 C. M. Oana,  R. Olson,  B. Peters,  R. Peverati,  P. A. Pieniazek,  
 Y. M. Rhee,  J. Ritchie,  M. A. Rohrdanz,  E. Rosta,  N. J. Russ,  
 H. F. Schaefer III,  N. E. Schultz,  N. Shenvi,  A. C. Simmonett,  A. Sodt,  
 D. Stuck,  K. S. Thanthiriwatte,  V. Vanovschi,  Tao Wang,  A. Warshel,  
 C. F. Williams,  Q. Wu,  X. Xu,  W. Zhang

 Please cite Q-Chem as follows:
 Y. Shao et al., Mol. Phys. 113, 184-215 (2015)
 DOI: 10.1080/00268976.2014.952696

 Q-Chem 5.2.1 for Intel X86 EM64T Linux

 Parts of Q-Chem use Armadillo 8.300.2 (Tropical Shenanigans).
 http://arma.sourceforge.net/

 Q-Chem begins on Fri Sep 27 15:26:30 2019  

Host: 
0

     Scratch files written to /local/2443262.master01.hydra.brussel.vsc/qchem4448//
 Jul1719 |scratch|qcdevops|jenkins|workspace|build_RNUM -1
Processing $rem in /apps/brussel/CO7/skylake/software/Q-Chem/5.2.1-intel-2019a-mpich3/config/preferences:
	 MEM_TOTAL  8000 
NAlpha2: 274
NElect   274
Mult     1

Checking the input file for inconsistencies... 	...done.

--------------------------------------------------------------
User input:
--------------------------------------------------------------
$molecule
0 1
Si  -3.22541988490863     -2.36518869816157      0.26110467437661
Si  -1.38693207899072     -1.38227308325625      1.37965453317913
Si  -2.37175217165820      0.27616777099927     -3.21944528385479
Si  -1.37988465990324      1.38696841790779     -1.38058598599964
Si  -3.21347234134992      2.38017005778453     -0.26275377343287
Si  -2.37184815958123     -0.26505240379169      3.21811363421243
Si  0.25995883129836     -3.21456684763183     -2.37753283472080
Si  1.37983708192913     -1.38238835339761     -1.38394950693962
Si  3.21430231919559     -2.38034179525241     -0.27138520982889
Si  -0.27456363719240     -3.22318040864006      2.36535093437363
Si  -0.25831614217415      3.22241347761960     -2.36607047387938
Si  2.37103409854994     -0.26496120014003     -3.21881339573160
Si  -0.00075589704777     -0.00019665320599      0.00069703883571
Si  3.22192457305030      2.36469428880175      0.27114754088747
Si  0.27187891998775      3.21481115023008      2.38093332956574
Si  2.37402042346338      0.25608160395838      3.21909007519675
Si  1.38327823395717      1.37789180197072      1.38634793445711
H   -2.81304235666262     -3.11029455609337     -0.95159102485279
H   -3.85694071847842     -3.32091152428435      1.20670142414474
H   -4.23825609389247     -1.35447276346113     -0.12538716657822
H   -1.36494346885665     -0.11056479308854     -4.23621363472776
H   -3.11950250966442     -0.93540177600546     -2.80854598338888
H   -3.32598021980964      1.22684658199449     -3.84560578882972
H   -2.79666103134991      3.12569660121040      0.94822733688891
H   -3.84111801021519      3.33718938350552     -1.20959766095853
H   -4.23088313389568      1.37511722215285      0.12651933798345
H   -1.36102372861398      0.11411655607515      4.23370441621727
H   -3.11165990571842      0.95178206820032      2.80853119669625
H   -3.33253981623748     -1.20870662707112      3.84503435586565
H   -0.95463687588777     -2.79986556259499     -3.11844264105715
H   1.20454000437386     -3.83975225496676     -3.33846541600969
H   -0.12377704811917     -4.23332737780247     -1.37175902671791
H   4.23475102662681     -1.37676425682795      0.11365759517856
H   2.80132687496334     -3.12528607532287      0.94118287886444
H   3.83671254386340     -3.33833396104696     -1.22078892976681
H   0.93985342639365     -2.81454903916614      3.10976889124965
H   -1.22235384784098     -3.85026510991224      3.32190852574854
H   0.10802547381450     -4.23836241798384      1.35561044777347
H   0.12856561976561      4.23557624179016     -1.35582004494003
H   0.95453752918474      2.80862943120548     -3.11036011043144
H   -1.20273803568579      3.85410714215148     -3.32283432654941
H   3.11603158036243      0.94748955486328     -2.80578338924299
H   3.32772713791738     -1.21276204680625     -3.84564931339414
H   1.36399751435117      0.12145596275615     -4.23534847914355
H   3.84940998883766      3.32321337354942      1.21665117765369
H   4.23634169602775      1.35302617858319     -0.10867719148476
H   2.81402406281567      3.10643498959847     -0.94498672001279
H   1.22177474013701      3.83565407065407      3.33947174521752
H   -0.10973459891651      4.23550165742999      1.37626763623154
H   -0.94255423185594      2.80473084080622      3.12450312653335
H   3.33379638113423      1.19973721794448      3.84738967892241
H   1.36764952239100     -0.13057819543746      4.23625860577050
H   3.11599100011544     -0.95715586239395      2.80256524044961
$end

$rem
JOBTYPE              sp
EXCHANGE             b3lyp
BASIS                def2-tzvp
CIS_N_ROOTS          4
CIS_CONVERGENCE      8
CORRELATION          none
MAX_SCF_CYCLES       600
MAX_CIS_CYCLES       50
SCF_ALGORITHM        diis
MEM_STATIC           1200
MEM_TOTAL            8000
SYMMETRY             false
SYM_IGNORE           true
UNRESTRICTED         false
CIS_SINGLETS         true
CIS_TRIPLETS         true
CALC_SOC             true
SET_ITER             300
STS_MOM              true
--------------------------------------------------------------
 ----------------------------------------------------------------
             Standard Nuclear Orientation (Angstroms)
    I     Atom           X                Y                Z
 ----------------------------------------------------------------
    1      Si     -3.2254198849    -2.3651886982     0.2611046744
    2      Si     -1.3869320790    -1.3822730833     1.3796545332
    3      Si     -2.3717521717     0.2761677710    -3.2194452839
    4      Si     -1.3798846599     1.3869684179    -1.3805859860
    5      Si     -3.2134723413     2.3801700578    -0.2627537734
    6      Si     -2.3718481596    -0.2650524038     3.2181136342
    7      Si      0.2599588313    -3.2145668476    -2.3775328347
    8      Si      1.3798370819    -1.3823883534    -1.3839495069
    9      Si      3.2143023192    -2.3803417953    -0.2713852098
   10      Si     -0.2745636372    -3.2231804086     2.3653509344
   11      Si     -0.2583161422     3.2224134776    -2.3660704739
   12      Si      2.3710340985    -0.2649612001    -3.2188133957
   13      Si     -0.0007558970    -0.0001966532     0.0006970388
   14      Si      3.2219245731     2.3646942888     0.2711475409
   15      Si      0.2718789200     3.2148111502     2.3809333296
   16      Si      2.3740204235     0.2560816040     3.2190900752
   17      Si      1.3832782340     1.3778918020     1.3863479345
   18      H      -2.8130423567    -3.1102945561    -0.9515910249
   19      H      -3.8569407185    -3.3209115243     1.2067014241
   20      H      -4.2382560939    -1.3544727635    -0.1253871666
   21      H      -1.3649434689    -0.1105647931    -4.2362136347
   22      H      -3.1195025097    -0.9354017760    -2.8085459834
   23      H      -3.3259802198     1.2268465820    -3.8456057888
   24      H      -2.7966610313     3.1256966012     0.9482273369
   25      H      -3.8411180102     3.3371893835    -1.2095976610
   26      H      -4.2308831339     1.3751172222     0.1265193380
   27      H      -1.3610237286     0.1141165561     4.2337044162
   28      H      -3.1116599057     0.9517820682     2.8085311967
   29      H      -3.3325398162    -1.2087066271     3.8450343559
   30      H      -0.9546368759    -2.7998655626    -3.1184426411
   31      H       1.2045400044    -3.8397522550    -3.3384654160
   32      H      -0.1237770481    -4.2333273778    -1.3717590267
   33      H       4.2347510266    -1.3767642568     0.1136575952
   34      H       2.8013268750    -3.1252860753     0.9411828789
   35      H       3.8367125439    -3.3383339610    -1.2207889298
   36      H       0.9398534264    -2.8145490392     3.1097688912
   37      H      -1.2223538478    -3.8502651099     3.3219085257
   38      H       0.1080254738    -4.2383624180     1.3556104478
   39      H       0.1285656198     4.2355762418    -1.3558200449
   40      H       0.9545375292     2.8086294312    -3.1103601104
   41      H      -1.2027380357     3.8541071422    -3.3228343265
   42      H       3.1160315804     0.9474895549    -2.8057833892
   43      H       3.3277271379    -1.2127620468    -3.8456493134
   44      H       1.3639975144     0.1214559628    -4.2353484791
   45      H       3.8494099888     3.3232133735     1.2166511777
   46      H       4.2363416960     1.3530261786    -0.1086771915
   47      H       2.8140240628     3.1064349896    -0.9449867200
   48      H       1.2217747401     3.8356540707     3.3394717452
   49      H      -0.1097345989     4.2355016574     1.3762676362
   50      H      -0.9425542319     2.8047308408     3.1245031265
   51      H       3.3337963811     1.1997372179     3.8473896789
   52      H       1.3676495224    -0.1305781954     4.2362586058
   53      H       3.1159910001    -0.9571558624     2.8025652404
 ----------------------------------------------------------------
 Nuclear Repulsion Energy =        4219.34358672 hartrees
 There are      137 alpha and      137 beta electrons
 Requested basis set is def2-TZVP
 There are 365 shells and 845 basis functions

 Total QAlloc Memory Limit   8000 MB
 Mega-Array Size      1174 MB
 MEM_STATIC part      1200 MB
 A cutoff of  1.0D-11 yielded  41321 shell pairs
 There are    233505 function pairs (    288404 Cartesian)
 Smallest overlap matrix eigenvalue = 3.56E-04

 Scale SEOQF with 1.000000e-01/1.000000e-01/1.000000e-01

 Standard Electronic Orientation quadrupole field applied
 Guess from superposition of atomic densities
 Warning:  Energy on first SCF cycle will be non-variational
 SAD guess density has 273.999999 electrons

 -----------------------------------------------------------------------
  General SCF calculation program by
  Eric Jon Sundstrom, Paul Horn, Yuezhi Mao, Dmitri Zuev, Alec White,
  David Stuck, Shaama M.S., Shane Yost, Joonho Lee, David Small,
  Daniel Levine, Susi Lehtola, Hugh Burton, Evgeny Epifanovsky,
  Bang C. Huynh
 -----------------------------------------------------------------------
 Exchange:     0.2000 Hartree-Fock + 0.0800 Slater + 0.7200 B88
 Correlation:  0.1900 VWN1RPA + 0.8100 LYP
 Using SG-1 standard quadrature grid
 A restricted SCF calculation will be
 performed using DIIS
 SCF converges when DIIS error is below 1.0e-08
 ---------------------------------------
  Cycle       Energy         DIIS error
 ---------------------------------------
    1   -4944.2937666118      1.40e-02  
    2   -4943.5012828630      6.21e-04  
    3   -4943.5305432968      4.08e-04  
    4   -4943.5347205832      3.64e-04  
    5   -4943.5531371802      3.38e-05  
    6   -4943.5532569003      8.87e-06  
    7   -4943.5532617760      1.65e-06  
    8   -4943.5532619778      4.86e-07  
    9   -4943.5532620082      1.13e-07  
   10   -4943.5532620095      3.07e-08  
   11   -4943.5532620095      1.89e-08  
   12   -4943.5532620096      1.10e-09  Convergence criterion met
 ---------------------------------------
 SCF time:   CPU 18454.79s  wall 18456.00s 
 SCF   energy in the final basis set =    -4943.5532620096
 Total energy in the final basis set =    -4943.5532620096
 
 Direct TDDFT/TDA calculation will be performed
 Exchange:     0.2000 Hartree-Fock + 0.0800 Slater + 0.7200 B88
 Correlation:  0.1900 VWN1RPA + 0.8100 LYP
 Using SG-1 standard quadrature grid
 Triplet excitation energies requested
 Singlet excitation energies requested
 CIS energy converged when residual is below 10e- 8
 ---------------------------------------------------
 Iter    Rts Conv    Rts Left    Ttl Dev     Max Dev
 ---------------------------------------------------
   1         0           4      0.000234    0.000059
   2         0           4      0.000060    0.000015
   3         0           4      0.000057    0.000015
   4         0           4      0.000029    0.000013
   5         0           4      0.000017    0.000010
   6         0           4      0.000008    0.000005
   7         0           4      0.000005    0.000003
   8         0           4      0.000003    0.000002
   9         0           4      0.000003    0.000002
  10         0           4      0.000002    0.000002
  11         0           4      0.000003    0.000003
  12         3           1      0.000002    0.000002
  13         3           1      0.000001    0.000001
  14         3           1      0.000001    0.000001
  15         3           1      0.000000    0.000000
  16         3           1      0.000000    0.000000
  17         3           1      0.000000    0.000000
  18         3           1      0.000000    0.000000
  19         3           1      0.000000    0.000000
  20         3           1      0.000000    0.000000
  21         4           0      0.000000    0.000000    Roots Converged
 ---------------------------------------------------
 Triplets done: starting singlet calculation
 ---------------------------------------------------
 Iter    Rts Conv    Rts Left    Ttl Dev     Max Dev
 ---------------------------------------------------
  22         0           4      0.000473    0.000123
  23         0           4      0.000159    0.000045
  24         0           4      0.000076    0.000027
  25         0           4      0.000051    0.000025
  26         0           4      0.000037    0.000025
  27         0           4      0.000030    0.000021
  28         0           4      0.000016    0.000011
  29         0           4      0.000010    0.000008
  30         0           4      0.000005    0.000004
  31         0           4      0.000003    0.000002
  32         0           4      0.000002    0.000001
  33         0           4      0.000001    0.000001
  34         0           4      0.000001    0.000001
  35         0           4      0.000001    0.000001
  36         1           3      0.000001    0.000001
  37         3           1      0.000000    0.000000
  38         3           1      0.000000    0.000000
  39         3           1      0.000000    0.000000
  40         3           1      0.000000    0.000000
  41         3           1      0.000000    0.000000
  42         3           1      0.000000    0.000000
  43         3           1      0.000000    0.000000
  44         4           0      0.000000    0.000000    Roots Converged
 ---------------------------------------------------
 
 ---------------------------------------------------
         TDDFT/TDA Excitation Energies              
 ---------------------------------------------------

 Excited state   1: excitation energy (eV) =    4.6445
 Total energy for state  1:                 -4943.38257926 au
    Multiplicity: Triplet
    Trans. Mom.:  0.0000 X   0.0000 Y   0.0000 Z
    Strength   :     0.0000000000
    D(135) --> V(  1) amplitude =  0.2488
    D(136) --> V(  1) amplitude =  0.8259
    D(136) --> V(  2) amplitude =  0.2391

 Excited state   2: excitation energy (eV) =    4.6447
 Total energy for state  2:                 -4943.38257255 au
    Multiplicity: Triplet
    Trans. Mom.:  0.0000 X   0.0000 Y   0.0000 Z
    Strength   :     0.0000000000
    D(135) --> V(  1) amplitude =  0.3091
    D(137) --> V(  1) amplitude =  0.8137
    D(137) --> V(  4) amplitude = -0.3033

 Excited state   3: excitation energy (eV) =    4.6450
 Total energy for state  3:                 -4943.38256150 au
    Multiplicity: Triplet
    Trans. Mom.:  0.0000 X   0.0000 Y   0.0000 Z
    Strength   :     0.0000000000
    D(135) --> V(  1) amplitude =  0.7742
    D(135) --> V(  2) amplitude = -0.2606
    D(136) --> V(  1) amplitude = -0.2736
    D(137) --> V(  1) amplitude = -0.2872

 Excited state   4: excitation energy (eV) =    4.8000
 Total energy for state  4:                 -4943.37686667 au
    Multiplicity: Triplet
    Trans. Mom.:  0.0000 X   0.0000 Y   0.0000 Z
    Strength   :     0.0000000000
    D(135) --> V(  2) amplitude = -0.2476
    D(135) --> V(  3) amplitude =  0.5284
    D(136) --> V(  2) amplitude =  0.5340
    D(137) --> V(  3) amplitude = -0.2122

 Excited state   5: excitation energy (eV) =    5.0178
 Total energy for state  5:                 -4943.36886115 au
    Multiplicity: Singlet
    Trans. Mom.: -0.2296 X  -0.2236 Y   0.3450 Z
    Strength   :     0.0272600264
    D(137) --> V(  1) amplitude =  0.9644

 Excited state   6: excitation energy (eV) =    5.0188
 Total energy for state  6:                 -4943.36882548 au
    Multiplicity: Singlet
    Trans. Mom.:  0.3155 X  -0.3510 Y  -0.0158 Z
    Strength   :     0.0274154539
    D(135) --> V(  1) amplitude =  0.8565
    D(136) --> V(  1) amplitude = -0.4484

 Excited state   7: excitation energy (eV) =    5.0190
 Total energy for state  7:                 -4943.36881689 au
    Multiplicity: Singlet
    Trans. Mom.: -0.2662 X  -0.2233 Y  -0.3228 Z
    Strength   :     0.0276597544
    D(135) --> V(  1) amplitude =  0.4523
    D(136) --> V(  1) amplitude =  0.8536

 Excited state   8: excitation energy (eV) =    5.1058
 Total energy for state  8:                 -4943.36562856 au
    Multiplicity: Singlet
    Trans. Mom.: -0.0927 X  -0.0024 Y  -0.0276 Z
    Strength   :     0.0011716493
    D(135) --> V(  2) amplitude =  0.3369
    D(135) --> V(  3) amplitude = -0.3631
    D(135) --> V(  4) amplitude = -0.4939
    D(137) --> V(  2) amplitude =  0.6116
 
 ---------------------------------------------------
  SETman timing summary (seconds)
  CPU time             97631.90s
  System time              0.00s
  Wall time            97640.49s



*********SPIN-ORBIT COUPLING JOB BEGINS HERE*********


=======================================================================================
    SPIN-ORBIT COUPLING BETWEEN THE SINGLET GROUND STATE AND EXCITED TRIPLET STATE
=======================================================================================

SOC between the singlet ground state and excited triplet states (ms=0):
T1(ms=0)      0.000000  +  -2.115060i    cm-1
T2(ms=0)      0.000000  +  1.756753i    cm-1
T3(ms=0)      0.000000  +  -1.279741i    cm-1
T4(ms=0)      0.000000  +  -0.399625i    cm-1
SOC between the singlet ground state and excited triplet states (ms=1):
T1(ms=1)      -0.651664  + (-1.387803i)    cm-1
T2(ms=1)      -1.646324  + (-0.585946i)    cm-1
T3(ms=1)      -1.218445  + (1.520357i)    cm-1
T4(ms=1)      0.354654  + (0.418439i)    cm-1
SOC between the singlet ground state and excited triplet states (ms=-1):
T1(ms=-1)     -0.651664  - (-1.387803i)    cm-1
T2(ms=-1)     -1.646324  - (-0.585946i)    cm-1
T3(ms=-1)     -1.218445  - (1.520357i)    cm-1
T4(ms=-1)     0.354654  - (0.418439i)    cm-1
Total SOC between the singlet ground state and excited triplet states:
T1      3.028994    cm-1
T2      3.032097    cm-1
T3      3.038079    cm-1
T4      0.872606    cm-1




=======================================================================================
                     SPIN-ORBIT COUPLING BETWEEN EXCITED TRIPLET STATES
=======================================================================================

SOC between the T1 (ms=0) state and excited triplet states (ms=1):
T2(ms=1)      -21.788614  + (26.725393i)    cm-1
T3(ms=1)      29.033756  + (10.403860i)    cm-1
T4(ms=1)      6.407873  + (0.715636i)    cm-1
SOC between the T1 (ms=0) state and excited triplet states (ms=-1):
T2(ms=-1)     21.788614  + (26.725393i)    cm-1
T3(ms=-1)     -29.033756  + (10.403860i)    cm-1
T4(ms=-1)     -6.407873  + (0.715636i)    cm-1
SOC between the T1 (ms=1) state and excited triplet states (ms=0):
T2(ms=0)      21.788614  + (26.725393i)    cm-1
T3(ms=0)      -29.033756  + (10.403860i)    cm-1
T4(ms=0)      -6.407873  + (0.715636i)    cm-1
SOC between the T1 (ms=1) state and excited triplet states (ms=1):
T2(ms=1)      0.000000  + (-22.614521i)    cm-1
T3(ms=1)      0.000000  + (-31.245017i)    cm-1
T4(ms=1)      0.000000  + (12.092733i)    cm-1
SOC between the T1 (ms=-1) state and excited triplet states (ms=0):
T2(ms=0)      -21.788614  + (26.725393i)    cm-1
T3(ms=0)      29.033756  + (10.403860i)    cm-1
T4(ms=0)      6.407873  + (0.715636i)    cm-1
SOC between the T1 (ms=-1) state and excited triplet states (ms=-1):
T2(ms=-1)     0.000000  + (22.614521i)    cm-1
T3(ms=-1)     0.000000  + (31.245017i)    cm-1
T4(ms=-1)     0.000000  + (-12.092733i)    cm-1
Total SOC between the T1 state and excited triplet states:
T2      76.018382    cm-1
T3      75.876870    cm-1
T4      21.418690    cm-1



SOC between the T2 (ms=0) state and excited triplet states (ms=1):
T3(ms=1)      -11.154208  + (-24.921908i)    cm-1
T4(ms=1)      -8.232587  + (-8.631282i)    cm-1
SOC between the T2 (ms=0) state and excited triplet states (ms=-1):
T3(ms=-1)     11.154208  + (-24.921908i)    cm-1
T4(ms=-1)     8.232587  + (-8.631282i)    cm-1
SOC between the T2 (ms=1) state and excited triplet states (ms=0):
T3(ms=0)      11.154208  + (-24.921908i)    cm-1
T4(ms=0)      8.232587  + (-8.631282i)    cm-1
SOC between the T2 (ms=1) state and excited triplet states (ms=1):
T3(ms=1)      0.000000  + (-37.274152i)    cm-1
T4(ms=1)      0.000000  + (9.850157i)    cm-1
SOC between the T2 (ms=-1) state and excited triplet states (ms=0):
T3(ms=0)      -11.154208  + (-24.921908i)    cm-1
T4(ms=0)      -8.232587  + (-8.631282i)    cm-1
SOC between the T2 (ms=-1) state and excited triplet states (ms=-1):
T3(ms=-1)     0.000000  + (37.274152i)    cm-1
T4(ms=-1)     0.000000  + (-9.850157i)    cm-1
Total SOC between the T2 state and excited triplet states:
T3      75.899910    cm-1
T4      27.625157    cm-1



SOC between the T3 (ms=0) state and excited triplet states (ms=1):
T4(ms=1)      7.785435  + (-2.559618i)    cm-1
SOC between the T3 (ms=0) state and excited triplet states (ms=-1):
T4(ms=-1)     -7.785435  + (-2.559618i)    cm-1
SOC between the T3 (ms=1) state and excited triplet states (ms=0):
T4(ms=0)      -7.785435  + (-2.559618i)    cm-1
SOC between the T3 (ms=1) state and excited triplet states (ms=1):
T4(ms=1)      0.000000  + (-6.080460i)    cm-1
SOC between the T3 (ms=-1) state and excited triplet states (ms=0):
T4(ms=0)      7.785435  + (-2.559618i)    cm-1
SOC between the T3 (ms=-1) state and excited triplet states (ms=-1):
T4(ms=-1)     0.000000  + (6.080460i)    cm-1
Total SOC between the T3 state and excited triplet states:
T4      18.509526    cm-1







=======================================================================================
         SPIN-ORBIT COUPLING BETWEEN EXCITED SINGLET STATES AND TRIPLET STATES
=======================================================================================

SOC between the S1 state and excited triplet states (ms=0):
T1(ms=0)      0.000000  +  11.119700i    cm-1
T2(ms=0)      0.000000  +  -15.376250i    cm-1
T3(ms=0)      0.000000  +  -39.555549i    cm-1
T4(ms=0)      0.000000  +  -1.012284i    cm-1
SOC between the S1 state and excited triplet states (ms=1):
T1(ms=1)      (-37.341154)  + (24.806546i)    cm-1
T2(ms=1)      (4.036183)  + (13.342349i)    cm-1
T3(ms=1)      (13.712444)  + (28.341562i)    cm-1
T4(ms=1)      (1.118367)  + (-1.930625i)    cm-1
SOC between the S1 state and excited triplet states (ms=-1):
T1(ms=-1)    -(-37.341154)  + (24.806546i)    cm-1
T2(ms=-1)    -(4.036183)  + (13.342349i)    cm-1
T3(ms=-1)    -(13.712444)  + (28.341562i)    cm-1
T4(ms=-1)    -(1.118367)  + (-1.930625i)    cm-1
Total SOC between the S1 state and excited triplet states:
T1      64.366923    cm-1
T2      25.000943    cm-1
T3      59.558308    cm-1
T4      3.313734    cm-1



SOC between the S2 state and excited triplet states (ms=0):
T1(ms=0)      0.000000  +  44.348660i    cm-1
T2(ms=0)      0.000000  +  45.887204i    cm-1
T3(ms=0)      0.000000  +  -9.588602i    cm-1
T4(ms=0)      0.000000  +  -7.737267i    cm-1
SOC between the S2 state and excited triplet states (ms=1):
T1(ms=1)      (22.483189)  + (22.844932i)    cm-1
T2(ms=1)      (-17.493439)  + (-20.778683i)    cm-1
T3(ms=1)      (11.832545)  + (13.178203i)    cm-1
T4(ms=1)      (1.955103)  + (1.671136i)    cm-1
SOC between the S2 state and excited triplet states (ms=-1):
T1(ms=-1)    -(22.483189)  + (22.844932i)    cm-1
T2(ms=-1)    -(-17.493439)  + (-20.778683i)    cm-1
T3(ms=-1)    -(11.832545)  + (13.178203i)    cm-1
T4(ms=-1)    -(1.955103)  + (1.671136i)    cm-1
Total SOC between the S2 state and excited triplet states:
T1      63.415874    cm-1
T2      59.842991    cm-1
T3      26.819575    cm-1
T4      8.549593    cm-1



SOC between the S3 state and excited triplet states (ms=0):
T1(ms=0)      0.000000  +  9.675823i    cm-1
T2(ms=0)      0.000000  +  -18.968742i    cm-1
T3(ms=0)      0.000000  +  -42.160918i    cm-1
T4(ms=0)      0.000000  +  -1.071241i    cm-1
SOC between the S3 state and excited triplet states (ms=1):
T1(ms=1)      (2.169641)  + (5.590594i)    cm-1
T2(ms=1)      (23.476998)  + (-36.359948i)    cm-1
T3(ms=1)      (-32.462005)  + (-8.983180i)    cm-1
T4(ms=1)      (-3.941818)  + (3.699232i)    cm-1
SOC between the S3 state and excited triplet states (ms=-1):
T1(ms=-1)    -(2.169641)  + (5.590594i)    cm-1
T2(ms=-1)    -(23.476998)  + (-36.359948i)    cm-1
T3(ms=-1)    -(-32.462005)  + (-8.983180i)    cm-1
T4(ms=-1)    -(-3.941818)  + (3.699232i)    cm-1
Total SOC between the S3 state and excited triplet states:
T1      12.866457    cm-1
T2      64.079978    cm-1
T3      63.612118    cm-1
T4      7.719589    cm-1



SOC between the S4 state and excited triplet states (ms=0):
T1(ms=0)      0.000000  +  3.674550i    cm-1
T2(ms=0)      0.000000  +  8.798885i    cm-1
T3(ms=0)      0.000000  +  6.700117i    cm-1
T4(ms=0)      0.000000  +  27.798349i    cm-1
SOC between the S4 state and excited triplet states (ms=1):
T1(ms=1)      (-6.151836)  + (-0.378377i)    cm-1
T2(ms=1)      (3.551245)  + (-1.483067i)    cm-1
T3(ms=1)      (-1.636613)  + (-1.288515i)    cm-1
T4(ms=1)      (-15.982914)  + (3.403389i)    cm-1
SOC between the S4 state and excited triplet states (ms=-1):
T1(ms=-1)    -(-6.151836)  + (-0.378377i)    cm-1
T2(ms=-1)    -(3.551245)  + (-1.483067i)    cm-1
T3(ms=-1)    -(-1.636613)  + (-1.288515i)    cm-1
T4(ms=-1)    -(-15.982914)  + (3.403389i)    cm-1
Total SOC between the S4 state and excited triplet states:
T1      9.459325    cm-1
T2      10.346111    cm-1
T3      7.319092    cm-1
T4      36.149986    cm-1






            *********SOC CODE ENDS HERE*********




                    STATE-TO-STATE TRANSITION MOMENTS


    Electron Dipole Moments of Ground State
 -----------------------------------------------------
   State     X           Y           Z(a.u.) 
 -----------------------------------------------------
       0    -0.162148    0.024684    0.046666
 -----------------------------------------------------

 Within CIS/TDA Excited States:

    Electron Dipole Moments of Triplet Excited State
 -----------------------------------------------------
   State     X           Y           Z(a.u.) 
 -----------------------------------------------------
       1    -0.159861    0.032123    0.051023
       2    -0.169089    0.022676    0.049452
       3    -0.159341    0.020442    0.041761
       4    -0.197604   -0.015755    0.100795
 -----------------------------------------------------

                Transition Moments Between Ground and Triplet Excited States
 --------------------------------------------------------------------------------
    States   X          Y          Z           Strength(a.u.)
 --------------------------------------------------------------------------------
    0    1   0.000000   0.000000   0.000000              0
    0    2   0.000000   0.000000   0.000000              0
    0    3   0.000000   0.000000   0.000000              0
    0    4   0.000000   0.000000   0.000000              0
 --------------------------------------------------------------------------------

                Transition Moments Between Triplet Excited States
 --------------------------------------------------------------------------------
    States   X          Y          Z           Strength(a.u.)
 --------------------------------------------------------------------------------
    1    2   0.001414  -0.001456   0.004860   1.240659E-10
    1    3   0.003173  -0.001613   0.001664   1.827582E-10
    1    4   0.079495  -0.071689   0.021712   4.543436E-05
    2    3   0.000560   0.003166  -0.002468   1.209771E-10
    2    4  -0.048739  -0.007028   0.090862   4.062907E-05
    3    4   0.055026   0.044137   0.087424   4.790813E-05
 --------------------------------------------------------------------------------

 Within CIS/TDA Excited States:

    Electron Dipole Moments of Singlet Excited State
 -----------------------------------------------------
   State     X           Y           Z(a.u.) 
 -----------------------------------------------------
       5    -0.007524    0.187674   -0.055018
       6    -0.172686    0.035600    0.270665
       7    -0.309219   -0.141650   -0.071832
       8    -0.158970    0.095958    0.045315
 -----------------------------------------------------

                Transition Moments Between Ground and Singlet Excited States
 --------------------------------------------------------------------------------
    States   X          Y          Z           Strength(a.u.)
 --------------------------------------------------------------------------------
    0    5  -0.229641  -0.223565   0.345005     0.02726003
    0    6   0.315471  -0.350992  -0.015787     0.02741545
    0    7  -0.266218  -0.223333  -0.322790     0.02765975
    0    8  -0.092735  -0.002440  -0.027584    0.001171649
 --------------------------------------------------------------------------------

                Transition Moments Between Singlet Excited States
 --------------------------------------------------------------------------------
    States   X          Y          Z           Strength(a.u.)
 --------------------------------------------------------------------------------
    5    6   0.119477  -0.114393  -0.008599   6.524593E-07
    5    7   0.004618   0.017244  -0.109948   3.661529E-07
    5    8  -0.005642   0.023128  -0.030327   3.203339E-06
    6    7  -0.116129   0.096056  -0.021937   1.328692E-07
    6    8  -0.007971   0.010804  -0.048101    5.31536E-06
    7    8  -0.004950  -0.037833  -0.031743    5.23618E-06
 --------------------------------------------------------------------------------

                    END OF TRANSITION MOMENT CALCULATION

 STSman time:  CPU 27.92 s  wall 27.92 s

 
 --------------------------------------------------------------
 
                    Orbital Energies (a.u.)
 --------------------------------------------------------------
 
 Alpha MOs
 -- Occupied --
-66.1317 -66.1134 -66.1134 -66.1134 -66.1134 -66.1127 -66.1127 -66.1127
-66.1127 -66.1127 -66.1127 -66.1127 -66.1127 -66.1127 -66.1127 -66.1127
-66.1127  -5.2930  -5.2775  -5.2775  -5.2775  -5.2775  -5.2769  -5.2769
 -5.2769  -5.2769  -5.2769  -5.2769  -5.2769  -5.2768  -5.2768  -5.2768
 -5.2768  -5.2768  -3.6506  -3.6506  -3.6506  -3.6352  -3.6352  -3.6352
 -3.6352  -3.6352  -3.6352  -3.6352  -3.6352  -3.6352  -3.6352  -3.6352
 -3.6351  -3.6347  -3.6347  -3.6347  -3.6347  -3.6346  -3.6346  -3.6346
 -3.6346  -3.6345  -3.6345  -3.6345  -3.6345  -3.6343  -3.6343  -3.6343
 -3.6343  -3.6343  -3.6343  -3.6343  -3.6343  -3.6342  -3.6342  -3.6342
 -3.6342  -3.6342  -3.6342  -3.6342  -3.6342  -3.6342  -3.6342  -3.6342
 -3.6342  -3.6342  -3.6342  -3.6342  -3.6342  -0.6145  -0.5888  -0.5888
 -0.5888  -0.5459  -0.5458  -0.5458  -0.5412  -0.5412  -0.5386  -0.5385
 -0.5385  -0.5351  -0.4590  -0.4590  -0.4590  -0.4125  -0.3802  -0.3802
 -0.3802  -0.3760  -0.3760  -0.3737  -0.3737  -0.3736  -0.3712  -0.3581
 -0.3580  -0.3580  -0.3580  -0.3562  -0.3562  -0.3562  -0.3518  -0.3518
 -0.3518  -0.3493  -0.3493  -0.3457  -0.3457  -0.3457  -0.3107  -0.3107
 -0.3107  -0.2923  -0.2923  -0.2811  -0.2811  -0.2811  -0.2684  -0.2684
 -0.2684
 -- Virtual --
 -0.0583  -0.0501  -0.0500  -0.0500  -0.0373  -0.0372  -0.0254  -0.0254
 -0.0254  -0.0226  -0.0171  -0.0171  -0.0170  -0.0019  -0.0019  -0.0019
  0.0018   0.0018   0.0080   0.0179   0.0179   0.0180   0.0328   0.0329
  0.0329   0.0333   0.0333   0.0333   0.0338   0.0392   0.0393   0.0393
  0.0478   0.0478   0.0558   0.0558   0.0559   0.0668   0.0669   0.0669
  0.0798   0.0798   0.0836   0.0837   0.0837   0.0976   0.0976   0.0976
  0.1008   0.1008   0.1009   0.1034   0.1034   0.1071   0.1071   0.1072
  0.1201   0.1202   0.1202   0.1275   0.1300   0.1302   0.1303   0.1389
  0.1442   0.1442   0.1442   0.1444   0.1445   0.1490   0.1586   0.1587
  0.1656   0.1656   0.1658   0.1778   0.1778   0.1778   0.1846   0.1899
  0.1900   0.1900   0.1984   0.1984   0.1985   0.2075   0.2075   0.2091
  0.2091   0.2092   0.2158   0.2158   0.2159   0.2450   0.2461   0.2462
  0.2462   0.2495   0.2564   0.2565   0.2565   0.2620   0.2621   0.2788
  0.2788   0.2788   0.2847   0.2848   0.2848   0.2849   0.2938   0.2939
  0.2939   0.3069   0.3083   0.3084   0.3124   0.3125   0.3125   0.3186
  0.3186   0.3186   0.3262   0.3263   0.3264   0.3386   0.3387   0.3387
  0.3445   0.3445   0.3565   0.3565   0.3566   0.3580   0.3761   0.3761
  0.3762   0.3815   0.3815   0.3815   0.3829   0.3829   0.3863   0.3864
  0.3864   0.3902   0.3902   0.3903   0.4027   0.4053   0.4054   0.4055
  0.4144   0.4198   0.4199   0.4297   0.4298   0.4298   0.4316   0.4317
  0.4318   0.4413   0.4414   0.4415   0.4497   0.4497   0.4594   0.4595
  0.4595   0.4661   0.4661   0.4662   0.4798   0.4799   0.4800   0.4875
  0.4944   0.4945   0.4945   0.5092   0.5092   0.5201   0.5203   0.5205
  0.5234   0.5234   0.5235   0.5237   0.5442   0.5537   0.5537   0.5539
  0.5586   0.5586   0.5686   0.5687   0.5688   0.5787   0.5787   0.5862
  0.5863   0.5864   0.5972   0.5973   0.5974   0.6026   0.6026   0.6026
  0.6068   0.6069   0.6162   0.6174   0.6175   0.6175   0.6293   0.6294
  0.6294   0.6542   0.6542   0.6544   0.6590   0.6601   0.6602   0.6677
  0.6678   0.6679   0.6718   0.6720   0.6720   0.6821   0.6823   0.6824
  0.6956   0.7072   0.7072   0.7203   0.7204   0.7204   0.7252   0.7253
  0.7254   0.8326   0.8327   0.8327   0.8429   0.8429   0.8575   0.8575
  0.8576   0.8867   0.8868   0.8869   0.8894   0.8895   0.8907   0.8986
  0.9019   0.9020   0.9021   0.9025   0.9025   0.9026   0.9100   0.9100
  0.9101   0.9239   0.9240   0.9241   0.9440   0.9442   0.9443   0.9536
  0.9537   0.9555   0.9556   0.9557   0.9621   0.9748   0.9840   0.9840
  0.9841   0.9877   0.9877   0.9877   0.9940   0.9941   1.0066   1.0067
  1.0068   1.0117   1.0117   1.0118   1.0129   1.0130   1.0131   1.0241
  1.0241   1.0241   1.0289   1.0290   1.0291   1.0330   1.0330   1.0331
  1.0347   1.0347   1.0440   1.0441   1.0441   1.0456   1.0590   1.0590
  1.0592   1.0649   1.0656   1.0656   1.0729   1.0730   1.0731   1.0776
  1.0778   1.0779   1.0829   1.0830   1.0831   1.0868   1.0868   1.0934
  1.0934   1.0934   1.0936   1.1031   1.1031   1.1032   1.1086   1.1088
  1.1089   1.1151   1.1151   1.1152   1.1280   1.1281   1.1281   1.1335
  1.1335   1.1336   1.1372   1.1373   1.1373   1.1446   1.1446   1.1447
  1.1526   1.1526   1.1728   1.1728   1.1729   1.1792   1.1793   1.1794
  1.1955   1.1956   1.2019   1.2021   1.2022   1.2062   1.2194   1.2195
  1.2195   1.2347   1.2493   1.2493   1.2494   1.2564   1.2565   1.2566
  1.2666   1.2669   1.2669   1.3071   1.3072   1.3072   1.3075   1.3076
  1.3139   1.3139   1.3229   1.3231   1.3232   1.3344   1.3374   1.3375
  1.3376   1.3476   1.3476   1.3531   1.3532   1.3533   1.3620   1.3622
  1.3624   1.3672   1.3729   1.3775   1.3777   1.3778   1.3928   1.3929
  1.3930   1.4121   1.4124   1.4124   1.4331   1.4332   1.4333   1.4459
  1.4459   1.4482   1.4482   1.4482   1.4640   1.4955   1.4956   1.4958
  1.5027   1.5028   1.5029   1.5324   1.5325   1.5401   1.5404   1.5404
  1.5528   1.5781   1.5781   1.5782   1.5894   1.5913   1.5913   1.5913
  1.6106   1.6107   1.6109   1.6155   1.6155   1.6225   1.6226   1.6228
  1.6444   1.6445   1.6445   1.6590   1.6591   1.6593   1.6640   1.6716
  1.6717   1.6858   1.6889   1.6889   1.6890   1.7108   1.7109   1.7110
  1.7111   1.7184   1.7185   1.7227   1.7227   1.7229   1.7654   1.7656
  1.7657   1.8035   1.8039   1.8040   1.8072   1.8073   1.8242   1.8243
  1.8244   1.8277   1.8281   1.8282   1.8550   1.8941   1.8941   1.8943
  1.8964   1.8964   1.8968   1.8968   1.8969   1.8998   1.9052   1.9052
  1.9054   1.9123   1.9124   1.9125   1.9135   1.9135   1.9241   1.9243
  1.9244   1.9281   1.9282   1.9283   1.9351   1.9352   1.9353   1.9493
  1.9493   1.9494   1.9612   1.9666   1.9667   1.9668   1.9728   1.9749
  1.9749   1.9796   1.9798   1.9798   1.9926   1.9927   1.9928   1.9943
  1.9944   2.0106   2.0107   2.0107   2.0130   2.0193   2.0194   2.0284
  2.0284   2.0286   2.0347   2.0348   2.0349   2.0388   2.0389   2.0390
  2.0414   2.0415   2.0442   2.0443   2.0443   2.0464   2.0466   2.0466
  2.0495   2.0631   2.0631   2.0632   2.0638   2.0900   2.0901   2.0937
  2.0937   2.0939   2.1055   2.1056   2.1057   2.2345   2.2348   2.2350
  2.2823   2.3136   2.3137   2.3138   2.3294   2.3294   2.3350   2.3350
  2.3351   2.3408   2.3409   2.3409   2.3709   2.3709   2.3710   2.3751
  2.3751   2.3778   2.3778   2.3778   2.3904   2.3904   2.3905   2.3912
  2.4000   2.4001   2.4001   2.4082   2.4083   2.4084   2.4094   2.4140
  2.4141   2.4141   2.4338   2.4338   2.6816   2.7142   2.7143   2.7144
  2.7538   2.7540   2.7543   2.7756   2.7757   2.7855   2.7856   2.7860
  2.8091   2.8347   2.8348   2.8348   2.8691   2.8692   2.8693   2.8776
  2.8777   2.8855   2.8856   2.8856   2.9214   2.9215   2.9215   2.9224
  2.9302   2.9304   2.9305   2.9409   2.9410   2.9411   2.9526   2.9526
  6.1754   6.1755   6.1755   6.1789   6.1983   6.1984   6.1984   6.2075
  6.2075   6.2075   6.2075   6.2076   6.2193   6.2194   6.2247   6.2248
  6.2248   6.2356   6.2357   6.2357   6.2471   6.2471   6.2474   6.2648
  6.3316   6.3645   6.3646   6.3647   6.3757   6.3757   6.3758   6.3807
  6.3809   6.4150   6.4150   6.4151   6.4224   6.4226   6.4226   6.4383
  6.4383   6.4436   6.4437   6.4437   6.4671   6.4674   6.4674   6.4738
  6.5701   6.5703   6.5703  10.0743  10.3105  10.3106  10.3107  10.4159
 10.5779  10.5781  10.5783  10.6096  10.7123  10.7125  10.7307  10.7307
 10.7308  10.7449  10.7451  10.7453
 --------------------------------------------------------------
 
          Ground-State Mulliken Net Atomic Charges

     Atom                 Charge (a.u.)
  ----------------------------------------
      1 Si                    0.085930
      2 Si                    0.013356
      3 Si                    0.085874
      4 Si                    0.013097
      5 Si                    0.085916
      6 Si                    0.085802
      7 Si                    0.085873
      8 Si                    0.013044
      9 Si                    0.085878
     10 Si                    0.085809
     11 Si                    0.085919
     12 Si                    0.085955
     13 Si                    0.059051
     14 Si                    0.085857
     15 Si                    0.085870
     16 Si                    0.085951
     17 Si                    0.013226
     18 H                    -0.027190
     19 H                    -0.034663
     20 H                    -0.033393
     21 H                    -0.033332
     22 H                    -0.027149
     23 H                    -0.034633
     24 H                    -0.027208
     25 H                    -0.034636
     26 H                    -0.033352
     27 H                    -0.033408
     28 H                    -0.027124
     29 H                    -0.034687
     30 H                    -0.027197
     31 H                    -0.034649
     32 H                    -0.033415
     33 H                    -0.033308
     34 H                    -0.027163
     35 H                    -0.034637
     36 H                    -0.027166
     37 H                    -0.034652
     38 H                    -0.033322
     39 H                    -0.033412
     40 H                    -0.027155
     41 H                    -0.034669
     42 H                    -0.027190
     43 H                    -0.034678
     44 H                    -0.033401
     45 H                    -0.034638
     46 H                    -0.033470
     47 H                    -0.027141
     48 H                    -0.034685
     49 H                    -0.033324
     50 H                    -0.027137
     51 H                    -0.034638
     52 H                    -0.033358
     53 H                    -0.027226
  ----------------------------------------
  Sum of atomic charges =     0.000000

 -----------------------------------------------------------------
                    Cartesian Multipole Moments
 -----------------------------------------------------------------
    Charge (ESU x 10^10)
                -0.0000
    Dipole Moment (Debye)
         X      -0.0069      Y       0.0028      Z       0.0002
       Tot       0.0074
    Quadrupole Moments (Debye-Ang)
        XX    -258.1607     XY       0.0072     YY    -258.1686
        XZ      -0.0029     YZ      -0.0129     ZZ    -258.1702
    Octopole Moments (Debye-Ang^2)
       XXX       0.1127    XXY       0.0007    XYY       0.1091
       YYY      -0.0152    XXZ      -0.0661    XYZ      -5.6224
       YYZ       0.0426    XZZ       0.0269    YZZ       0.0197
       ZZZ      -0.1033
    Hexadecapole Moments (Debye-Ang^3)
      XXXX   -7571.8790   XXXY       0.3112   XXYY   -2536.9357
      XYYY       0.5374   YYYY   -7572.6101   XXXZ      -0.4135
      XXYZ      -0.5157   XYYZ      -0.1621   YYYZ      -1.6012
      XXZZ   -2537.1116   XYZZ       0.1546   YYZZ   -2537.2401
      XZZZ      -0.3646   YZZZ      -1.5478   ZZZZ   -7573.0790
 -----------------------------------------------------------------
Archival summary:
1\1\node206.hydra.os\SP\ProcedureUnspecified\BasisUnspecified\i1736\niacobel\SunSep2900:20:202019SunSep2900:20:202019\0\\#,ProcedureUnspecified,BasisUnspecified,\\0,1\Si\Si,1,2.3944\Si,2,2.36586,1,114.671\H,3,1.48185,2,112.307,1,53.4553,0\H,3,1.48215,2,111.778,1,-68.9547,0\H,3,1.48539,2,107.261,1,172.459,0\Si,2,2.36599,1,114.637,3,120.005,0\H,7,1.48187,2,112.335,1,53.2791,0\H,7,1.48207,2,111.746,1,-69.1224,0\H,7,1.48544,2,107.263,1,172.305,0\Si,2,2.36605,1,114.578,3,-120.038,0\H,11,1.48181,2,112.384,1,53.2996,0\H,11,1.48221,2,111.673,1,-69.1011,0\H,11,1.48541,2,107.289,1,172.343,0\Si,1,2.39452,2,109.489,3,-76.1945,0\Si,15,2.36598,1,114.669,2,163.77,0\H,16,1.48177,15,112.39,1,53.261,0\H,16,1.48216,15,111.739,1,-69.1656,0\H,16,1.48543,15,107.201,1,172.286,0\Si,15,2.36605,1,114.64,2,43.8211,0\H,20,1.48195,15,112.407,1,53.1554,0\H,20,1.48213,15,111.706,1,-69.2563,0\H,20,1.48542,15,107.253,1,172.196,0\Si,15,2.36621,1,114.743,2,-76.1436,0\H,24,1.48183,15,112.378,1,53.2027,0\H,24,1.48214,15,111.737,1,-69.2326,0\H,24,1.48543,15,107.237,1,172.219,0\Si,1,2.39461,2,109.46,3,43.7763,0\Si,28,2.366,1,114.622,2,163.842,0\H,29,1.48196,28,112.367,1,53.3401,0\H,29,1.48215,28,111.723,1,-69.0669,0\H,29,1.48538,28,107.266,1,172.371,0\Si,28,2.36602,1,114.644,2,43.915,0\H,33,1.4819,28,112.29,1,53.5134,0\H,33,1.48216,28,111.802,1,-68.8976,0\H,33,1.48537,28,107.263,1,172.499,0\Si,28,2.36624,1,114.692,2,-76.1371,0\H,37,1.48185,28,112.324,1,53.3549,0\H,37,1.48224,28,111.767,1,-69.0592,0\H,37,1.4854,28,107.243,1,172.376,0\Si,1,2.39472,2,109.483,3,163.772,0\Si,41,2.36602,1,114.608,2,163.825,0\H,42,1.48174,41,112.439,1,53.0721,0\H,42,1.48215,41,111.591,1,-69.3057,0\H,42,1.48542,41,107.301,1,172.174,0\Si,41,2.36615,1,114.74,2,-76.1146,0\H,46,1.48186,41,112.397,1,53.2839,0\H,46,1.48216,41,111.755,1,-69.1786,0\H,46,1.48544,41,107.178,1,172.301,0\Si,41,2.36621,1,114.667,2,43.9767,0\H,50,1.48188,41,112.339,1,53.2409,0\H,50,1.4822,41,111.773,1,-69.1589,0\H,50,1.4854,41,107.276,1,172.254,0\\\@

 Total job time:  118429.87s(wall), 118417.59s(cpu) 
 Sun Sep 29 00:20:20 2019

        *************************************************************
        *                                                           *
        *  Thank you very much for using Q-Chem.  Have a nice day.  *
        *                                                           *
        *************************************************************


